/*--------------------------------*- C++ -*----------------------------------*\
| =========                 |                                                 |
| \\      /  F ield         | OpenFOAM: The Open Source CFD Toolbox           |
|  \\    /   O peration     | Version:  5.x                                   |
|   \\  /    A nd           | Web:      www.OpenFOAM.org                      |
|    \\/     M anipulation  |                                                 |
\*---------------------------------------------------------------------------*/
/*   Windows 32 and 64 bit porting by blueCAPE: http://www.bluecape.com.pt   *\
|  Based on Windows porting (2.0.x v4) by Symscape: http://www.symscape.com   |
\*---------------------------------------------------------------------------*/
FoamFile
{
    version     2.0;
    format      ascii;
    class       volScalarField;
    location    "0.007";
    object      mag(U);
}
// * * * * * * * * * * * * * * * * * * * * * * * * * * * * * * * * * * * * * //

dimensions      [0 1 -1 0 0 0 0];

internalField   nonuniform List<scalar> 
10000
(
0.000175358
0.0010217
0.00463071
0.0196084
0.0750598
0.260906
0.795706
2.13384
5.04009
10.5307
19.4233
31.7979
46.8526
63.3154
80.2088
96.9508
113.333
129.264
144.706
159.569
173.887
187.506
200.47
212.788
224.314
234.925
244.669
253.593
261.633
268.576
274.293
278.97
282.799
285.793
288.069
289.735
290.763
291.276
291.538
291.796
292.211
292.873
293.811
294.997
296.391
297.977
299.782
301.792
303.903
305.993
308.125
310.404
312.839
315.404
318.025
320.584
322.986
325.144
326.994
328.475
0.000173527
0.00100726
0.00454626
0.0191959
0.0733121
0.254672
0.776727
2.08426
4.92847
10.3157
19.0683
31.2911
46.2153
62.588
79.4303
96.1504
112.532
128.479
143.95
158.865
173.245
186.932
199.994
212.424
224.054
234.784
244.686
253.795
262.018
269.148
275.033
279.882
283.923
287.142
289.619
291.478
292.694
293.34
293.669
293.924
294.23
294.667
295.273
296.008
296.822
297.693
298.669
299.78
300.944
302.051
303.12
304.219
305.354
306.501
307.582
308.462
309.014
309.189
308.956
308.238
0.00017324
0.00100534
0.00453664
0.0191564
0.0731705
0.254254
0.77574
2.08241
4.92573
10.3125
19.0665
31.2916
46.2153
62.5794
79.403
96.0924
112.431
128.327
143.728
158.594
172.842
186.489
199.476
211.743
223.276
233.975
243.788
252.73
260.793
267.829
273.698
278.519
282.471
285.578
287.95
289.725
290.876
291.466
291.763
291.935
292.105
292.397
292.8
293.267
293.755
294.251
294.803
295.452
296.14
296.748
297.292
297.89
298.608
299.476
300.438
301.377
302.206
302.857
303.238
303.245
0.000171746
0.000993764
0.00446899
0.0188245
0.0717496
0.249143
0.760003
2.04081
4.83088
10.1278
18.758
30.8464
45.6499
61.9291
78.7022
95.3685
111.704
127.612
143.03
157.964
172.228
185.985
199.063
211.359
222.988
233.883
243.879
252.915
261.032
268.217
274.306
279.375
283.582
286.867
289.336
291.217
292.503
293.203
293.602
293.847
293.992
294.141
294.303
294.429
294.474
294.425
294.343
294.317
294.318
294.216
293.997
293.773
293.643
293.671
293.826
294.021
294.19
294.298
294.281
294.069
0.000171129
0.000989738
0.00444895
0.0187404
0.0714389
0.248172
0.757495
2.03539
4.82088
10.1118
18.7373
30.8231
45.624
61.8945
78.6517
95.2912
111.588
127.452
142.813
157.682
171.864
185.536
198.548
210.76
222.281
233.072
242.981
251.938
259.974
267.046
273.053
278.041
282.149
285.376
287.795
289.602
290.817
291.447
291.767
291.929
292.011
292.147
292.325
292.498
292.615
292.657
292.665
292.701
292.737
292.652
292.413
292.116
291.871
291.766
291.808
291.927
292.059
292.115
292.041
291.815
0.000169848
0.000980096
0.00439331
0.0184682
0.0702688
0.243941
0.744364
2.00034
4.74008
9.95292
18.469
30.4311
45.1207
61.3114
78.019
94.6347
110.927
126.797
142.18
157.082
171.334
185.064
198.116
210.425
222.078
232.973
242.963
252.033
260.224
267.518
273.686
278.8
283.048
286.392
288.935
290.915
292.294
293.041
293.477
293.707
293.783
293.874
293.988
294.076
294.095
294.024
293.894
293.793
293.713
293.524
293.168
292.714
292.252
291.853
291.54
291.284
291.039
290.718
290.32
289.824
0.000169047
0.000974883
0.0043672
0.018357
0.0698517
0.242605
0.74081
1.99236
4.72469
9.92716
18.4334
30.389
45.0747
61.2569
77.9512
94.5434
110.801
126.633
141.966
156.809
170.979
184.636
197.64
209.865
221.407
232.21
242.135
251.142
259.257
266.434
272.526
277.568
281.744
285.062
287.56
289.448
290.756
291.446
291.8
291.974
292.047
292.187
292.41
292.674
292.934
293.159
293.36
293.589
293.832
293.96
293.916
293.749
293.535
293.354
293.236
293.131
292.972
292.683
292.232
291.589
0.000167897
0.00096654
0.00432002
0.0181284
0.0688712
0.239052
0.729743
1.96263
4.65554
9.79001
18.1995
30.0434
44.6256
60.7324
77.3783
93.9462
110.198
126.032
141.381
156.257
170.492
184.199
197.233
209.546
221.211
232.112
242.115
251.216
259.458
266.829
273.073
278.247
282.546
285.946
288.555
290.611
292.06
292.851
293.334
293.585
293.67
293.804
294.001
294.216
294.411
294.559
294.665
294.797
294.964
295.039
294.953
294.75
294.487
294.226
293.983
293.733
293.451
293.082
292.548
291.799
0.000167008
0.000960758
0.00429091
0.0180029
0.0683945
0.237499
0.725527
1.95293
4.63636
9.75713
18.1527
29.9866
44.5639
60.663
77.2978
93.8452
110.066
125.867
141.173
155.993
170.148
183.795
196.792
209.026
220.582
231.399
241.344
250.397
258.576
265.845
272.012
277.114
281.362
284.762
287.334
289.294
290.682
291.427
291.814
292.001
292.065
292.201
292.447
292.765
293.11
293.445
293.764
294.108
294.479
294.758
294.869
294.85
294.771
294.695
294.652
294.597
294.473
294.21
293.742
293.035
0.000165946
0.00095331
0.00424976
0.0178063
0.0675572
0.234468
0.716087
1.92749
4.57682
9.63821
17.9481
29.6814
44.1626
60.19
76.7773
93.3003
109.515
125.314
140.633
155.484
169.7
183.388
196.404
208.719
220.392
231.304
241.32
250.448
258.732
266.165
272.486
277.721
282.069
285.529
288.2
290.315
291.825
292.658
293.168
293.419
293.477
293.587
293.774
293.997
294.224
294.425
294.599
294.79
295.02
295.183
295.196
295.09
294.922
294.742
294.585
294.445
294.277
293.988
293.53
292.874
0.000165025
0.000947345
0.00421961
0.0176751
0.0670538
0.232805
0.711501
1.91674
4.55514
9.6004
17.8932
29.6135
44.0889
60.1095
76.6883
93.1933
109.379
125.151
140.431
155.23
169.368
183.008
196.001
208.236
219.803
230.639
240.613
249.702
257.925
265.269
271.513
276.683
281.009
284.487
287.126
289.157
290.623
291.424
291.851
292.06
292.112
292.225
292.457
292.771
293.123
293.472
293.805
294.152
294.526
294.82
294.945
294.928
294.836
294.729
294.653
294.591
294.468
294.206
293.799
293.197
0.000164027
0.000940549
0.0041829
0.0175024
0.0663257
0.230177
0.703344
1.89476
4.5035
9.49672
17.7136
29.3434
43.7297
59.682
76.2137
92.6943
108.873
124.641
139.931
154.759
168.957
182.627
195.628
207.942
219.62
230.543
240.576
249.727
258.042
265.525
271.923
277.222
281.617
285.139
287.87
290.037
291.61
292.503
293.048
293.318
293.377
293.482
293.674
293.913
294.171
294.42
294.652
294.894
295.166
295.381
295.443
295.36
295.179
294.95
294.727
294.518
294.273
293.93
293.506
292.912
0.000163111
0.000934632
0.00415295
0.0173712
0.065818
0.228481
0.698604
1.88346
4.48036
9.45579
17.6531
29.2674
43.647
59.5934
76.1194
92.5845
108.737
124.482
139.738
154.516
168.639
182.272
195.261
207.495
219.069
229.926
239.93
249.05
257.308
264.716
271.036
276.275
280.674
284.225
286.925
289.022
290.562
291.425
291.908
292.157
292.226
292.353
292.612
292.97
293.387
293.82
294.252
294.699
295.164
295.559
295.775
295.817
295.744
295.605
295.448
295.266
294.997
294.596
294.084
293.414
0.000162166
0.000928348
0.00411966
0.0172167
0.0651745
0.226168
0.691466
1.86427
4.43522
9.36484
17.4948
29.0275
43.3248
59.2064
75.6855
92.1261
108.272
124.009
139.274
154.079
168.259
181.913
194.898
207.211
218.893
229.827
239.877
249.047
257.39
264.915
271.387
276.751
281.191
284.77
287.559
289.774
291.409
292.369
292.96
293.271
293.368
293.509
293.754
294.071
294.438
294.826
295.222
295.639
296.087
296.494
296.75
296.833
296.781
296.626
296.412
296.149
295.822
295.365
294.77
294.019
0.000161272
0.000922608
0.00409061
0.017089
0.0646767
0.22449
0.686723
1.85282
4.41142
9.32221
17.4309
28.9461
43.2357
59.1122
75.5882
92.0157
108.138
123.857
139.089
153.847
167.957
181.584
194.566
206.801
218.383
229.258
239.285
248.435
256.728
264.195
270.587
275.89
280.352
283.967
286.729
288.892
290.503
291.438
291.99
292.293
292.407
292.586
292.918
293.374
293.916
294.506
295.118
295.761
296.428
297.04
297.477
297.723
297.831
297.831
297.75
297.573
297.271
296.802
296.139
295.292
0.000160376
0.000916754
0.00406009
0.0169491
0.0641004
0.222429
0.680401
1.83589
4.37164
9.2419
17.2906
28.7324
42.9461
58.7611
75.1905
91.5933
107.708
123.416
138.659
153.441
167.605
181.244
194.212
206.525
218.213
229.154
239.215
248.404
256.776
264.344
270.883
276.306
280.784
284.415
287.263
289.527
291.223
292.255
292.899
293.264
293.416
293.612
293.935
294.362
294.873
295.442
296.045
296.684
297.367
298.027
298.54
298.868
299.045
299.089
299.021
298.85
298.559
298.099
297.411
296.504
0.000159516
0.000911263
0.00403234
0.0168267
0.0636213
0.220801
0.675759
1.82455
4.34779
9.1987
17.225
28.6478
42.8529
58.6634
75.0921
91.484
107.577
123.271
138.483
153.22
167.32
180.941
193.912
206.15
217.743
228.632
238.677
247.852
256.183
263.705
270.165
275.529
280.04
283.711
286.535
288.763
290.439
291.448
292.069
292.421
292.585
292.826
293.238
293.797
294.473
295.226
296.021
296.852
297.719
298.557
299.226
299.696
300.024
300.223
300.306
300.253
300.029
299.603
298.936
297.996
0.000158667
0.00090579
0.00400415
0.0166989
0.0630997
0.218945
0.670101
1.80948
4.31244
9.12729
17.1
28.4566
42.5919
58.3441
74.7268
91.0939
107.179
122.86
138.084
152.843
166.991
180.616
193.568
205.881
217.575
228.522
238.591
247.797
256.197
263.807
270.407
275.885
280.399
284.074
286.98
289.292
291.042
292.142
292.837
293.249
293.448
293.692
294.079
294.592
295.219
295.93
296.694
297.499
298.358
299.218
299.936
300.472
300.863
301.115
301.243
301.247
301.095
300.731
300.117
299.192
0.000157847
0.000900582
0.00397789
0.0165829
0.0626441
0.217388
0.665626
1.79844
4.28897
9.08439
17.034
28.3706
42.4965
58.2447
74.6287
90.987
107.054
122.724
137.916
152.632
166.724
180.34
193.299
205.54
217.144
228.045
238.106
247.303
255.67
263.24
269.765
275.19
279.745
283.461
286.345
288.633
290.366
291.442
292.125
292.512
292.708
292.989
293.444
294.055
294.796
295.627
296.509
297.429
298.392
299.348
300.159
300.788
301.28
301.65
301.904
302.028
301.969
301.677
301.13
300.251
0.000157044
0.000895458
0.00395176
0.0164653
0.0621682
0.215702
0.660518
1.7849
4.25732
9.02045
16.9221
28.1988
42.2604
57.9536
74.2924
90.6259
106.683
122.338
137.545
152.281
166.415
180.028
192.962
205.277
216.977
227.928
238.003
247.224
255.652
263.303
269.958
275.488
280.036
283.747
286.709
289.069
290.865
292.024
292.759
293.2
293.418
293.669
294.061
294.581
295.219
295.946
296.729
297.558
298.447
299.36
300.175
300.835
301.367
301.789
302.109
302.327
302.383
302.205
301.747
300.943
0.000156266
0.000890545
0.00392704
0.0163562
0.0617385
0.214226
0.656251
1.77429
4.23456
8.97848
16.8569
28.113
42.1646
57.8542
74.1957
90.5222
106.565
122.211
137.387
152.083
166.167
179.778
192.722
204.968
216.584
227.496
237.568
246.786
255.187
262.803
269.387
274.872
279.465
283.219
286.159
288.503
290.284
291.418
292.149
292.543
292.731
292.992
293.406
293.96
294.633
295.388
296.189
297.027
297.916
298.83
299.673
300.366
300.943
301.456
301.901
302.263
302.459
302.427
302.082
301.387
0.000155508
0.000885748
0.00390276
0.0162475
0.0613017
0.212685
0.651604
1.76203
4.20599
8.92085
16.756
27.9578
41.9503
57.588
73.8855
90.1874
106.219
121.85
137.04
151.753
165.875
179.477
192.393
204.71
216.418
227.37
237.45
246.684
255.14
262.832
269.536
275.119
279.698
283.437
286.454
288.863
290.695
291.903
292.667
293.106
293.298
293.489
293.792
294.199
294.707
295.291
295.923
296.601
297.346
298.146
298.923
299.582
300.143
300.673
301.179
301.653
302.009
302.161
301.99
301.459
0.000154774
0.00088113
0.00387959
0.0161453
0.0608986
0.211295
0.647567
1.75193
4.18415
8.88028
16.6924
27.8735
41.8554
57.4897
73.7912
90.0877
106.107
121.731
136.892
151.567
165.648
179.251
192.179
204.435
216.067
226.984
237.06
246.297
254.738
262.402
269.043
274.586
279.209
282.995
285.99
288.39
290.215
291.406
292.176
292.558
292.705
292.889
293.184
293.591
294.091
294.654
295.251
295.877
296.558
297.288
298.009
298.611
299.114
299.618
300.145
300.689
301.167
301.463
301.468
301.142
0.000154061
0.000876642
0.00385699
0.0160447
0.060496
0.209878
0.643313
1.74075
4.1582
8.82799
16.6009
27.7325
41.6602
57.2457
73.5045
89.7765
105.783
121.392
136.568
151.249
165.388
178.939
191.863
204.212
215.889
226.818
236.934
246.22
254.7
262.397
269.128
274.77
279.405
283.19
286.27
288.727
290.586
291.839
292.645
293.088
293.262
293.398
293.603
293.882
294.232
294.634
295.064
295.521
296.037
296.617
297.205
297.7
298.107
298.525
298.999
299.541
300.087
300.495
300.663
300.525
0.00015337
0.000872313
0.00383533
0.0159491
0.0601191
0.208576
0.639517
1.7312
4.13743
8.78916
16.5396
27.6506
41.5673
57.1496
73.4132
89.6814
105.68
121.282
136.434
151.069
165.205
178.706
191.674
204.009
215.556
226.409
236.584
245.949
254.405
261.992
268.593
274.211
278.968
282.875
285.958
288.386
290.196
291.394
292.182
292.567
292.726
292.903
293.149
293.475
293.86
294.272
294.679
295.077
295.503
295.974
296.452
296.844
297.149
297.47
297.869
298.37
298.915
299.367
299.64
299.654
0.0001527
0.000868116
0.00381429
0.0158558
0.0597469
0.207268
0.635604
1.72095
4.1137
8.7414
16.4561
27.522
41.3887
56.9251
73.1475
89.3915
105.375
120.962
136.128
150.773
164.94
178.422
191.354
203.764
215.382
226.244
236.423
245.821
254.324
261.946
268.62
274.314
279.076
282.986
286.154
288.635
290.467
291.711
292.521
292.962
293.15
293.303
293.496
293.738
294.018
294.309
294.581
294.831
295.102
295.419
295.747
295.996
296.165
296.357
296.65
297.092
297.638
298.139
298.494
298.625
0.000152052
0.000864066
0.00379407
0.0157666
0.0593954
0.206052
0.632048
1.71197
4.09407
8.70453
16.3975
27.4431
41.2988
56.8322
73.0599
89.3014
105.279
120.861
136.002
150.617
164.752
178.242
191.19
203.548
215.101
225.933
236.117
245.531
254.027
261.62
268.226
273.881
278.694
282.663
285.821
288.3
290.122
291.347
292.164
292.558
292.73
292.912
293.135
293.412
293.719
294.015
294.26
294.446
294.617
294.812
295.009
295.126
295.16
295.222
295.406
295.766
296.255
296.753
297.167
297.401
0.000151424
0.000860144
0.00377447
0.0156799
0.0590503
0.204841
0.628433
1.70252
4.07225
8.66066
16.3209
27.3251
41.1346
56.6249
72.8132
89.0308
104.993
120.56
135.712
150.337
164.495
177.969
190.883
203.299
214.922
225.774
235.956
245.379
253.913
261.551
268.244
273.972
278.77
282.721
285.945
288.474
290.334
291.619
292.472
292.928
293.129
293.285
293.454
293.647
293.85
294.03
294.15
294.203
294.232
294.279
294.326
294.293
294.167
294.06
294.087
294.335
294.772
295.275
295.738
296.054
0.000150816
0.000856359
0.00375562
0.0155969
0.0587231
0.203707
0.625114
1.69412
4.05382
8.62589
16.2654
27.2499
41.0484
56.5358
72.7298
88.946
104.905
120.468
135.597
150.197
164.325
177.809
190.744
203.107
214.67
225.505
235.697
245.13
253.654
261.272
267.909
273.607
278.454
282.451
285.664
288.192
290.042
291.311
292.17
292.584
292.77
292.952
293.145
293.368
293.593
293.778
293.88
293.883
293.832
293.777
293.709
293.552
293.288
293.029
292.907
293.017
293.336
293.781
294.254
294.622
0.000150228
0.000852698
0.00373736
0.0155163
0.0584026
0.202584
0.621763
1.68537
4.03364
8.58537
16.1946
27.141
40.8968
56.3438
72.5001
88.6929
104.635
120.183
135.322
149.929
164.076
177.545
190.448
202.86
214.484
225.34
235.53
244.964
253.516
261.175
267.897
273.668
278.5
282.481
285.746
288.313
290.201
291.529
292.425
292.898
293.114
293.275
293.424
293.577
293.721
293.821
293.835
293.749
293.604
293.448
293.27
292.995
292.597
292.176
291.878
291.825
292.027
292.412
292.861
293.228
0.000149659
0.000849165
0.0037198
0.0154391
0.0580984
0.20153
0.618674
1.67754
4.01642
8.55277
16.1424
27.0699
40.8149
56.259
72.4212
88.6136
104.554
120.1
135.218
149.804
163.925
177.404
190.33
202.693
214.261
225.107
235.311
244.754
253.294
260.937
267.615
273.364
278.242
282.261
285.515
288.084
289.962
291.276
292.181
292.621
292.828
293.017
293.193
293.381
293.56
293.685
293.71
293.617
293.443
293.24
292.998
292.648
292.154
291.608
291.16
290.943
290.987
291.255
291.63
291.955
0.000149109
0.000845747
0.00370278
0.015364
0.0578001
0.200485
0.615556
1.6694
3.99767
8.51514
16.0767
26.9689
40.6743
56.0806
72.2069
88.3763
104.299
119.83
134.956
149.547
163.683
177.147
190.041
202.448
214.072
224.934
235.133
244.576
253.14
260.818
267.573
273.389
278.252
282.259
285.558
288.158
290.074
291.447
292.386
292.882
293.12
293.296
293.444
293.587
293.719
293.802
293.796
293.676
293.475
293.239
292.954
292.549
291.981
291.321
290.722
290.336
290.228
290.377
290.658
290.906
0.000148578
0.000842453
0.00368644
0.0152922
0.0575177
0.199506
0.61269
1.66213
3.98165
8.48475
16.0278
26.9021
40.597
56.0006
72.1327
88.3027
104.226
119.756
134.863
149.436
163.55
177.024
189.942
202.303
213.877
224.735
234.95
244.4
252.953
260.619
267.338
273.136
278.043
282.082
285.372
287.975
289.879
291.237
292.185
292.653
292.886
293.094
293.277
293.468
293.654
293.792
293.837
293.761
293.593
293.374
293.093
292.677
292.074
291.347
290.636
290.098
289.82
289.811
289.963
290.1
0.000148064
0.000839264
0.00367056
0.0152222
0.0572396
0.198531
0.609779
1.65453
3.96415
8.44962
15.9666
26.808
40.4661
55.8342
71.9323
88.0798
103.985
119.499
134.613
149.189
163.314
176.774
189.661
202.06
213.683
224.555
234.765
244.211
252.784
260.48
267.271
273.133
278.025
282.054
285.379
288.006
289.95
291.366
292.348
292.87
293.136
293.34
293.51
293.681
293.853
293.99
294.048
293.998
293.859
293.669
293.41
293.005
292.394
291.623
290.82
290.149
289.719
289.564
289.578
289.574
0.000147569
0.000836196
0.00365537
0.0151557
0.0569779
0.197625
0.607127
1.6478
3.94932
8.42145
15.9212
26.7457
40.3937
55.7592
71.863
88.0119
103.919
119.433
134.531
149.092
163.198
176.669
189.58
201.937
213.516
224.388
234.614
244.067
252.629
260.318
267.079
272.928
277.861
281.914
285.233
287.865
289.796
291.199
292.189
292.686
292.952
293.19
293.398
293.621
293.856
294.061
294.189
294.209
294.136
294.005
293.799
293.44
292.859
292.086
291.245
290.486
289.925
289.619
289.481
289.318
0.000147089
0.000833219
0.00364056
0.0150903
0.0567179
0.196712
0.6044
1.64068
3.9329
8.38849
15.8637
26.6575
40.2712
55.6034
71.675
87.802
103.691
119.189
134.292
148.854
162.969
176.425
189.306
201.696
213.319
224.201
234.42
243.869
252.448
260.163
266.988
272.896
277.814
281.858
285.206
287.858
289.831
291.288
292.312
292.858
293.151
293.388
293.589
293.801
294.033
294.248
294.402
294.46
294.434
294.354
294.202
293.898
293.364
292.618
291.772
290.966
290.322
289.91
289.645
289.323
0.000146627
0.000830365
0.00362646
0.0150286
0.0564759
0.195876
0.601955
1.63448
3.91925
8.36251
15.8218
26.5998
40.204
55.5337
71.6108
87.7398
103.632
119.132
134.22
148.771
162.869
176.336
189.24
201.595
213.179
224.062
234.297
243.753
252.325
260.035
266.836
272.732
277.686
281.751
285.095
287.753
289.712
291.156
292.183
292.705
292.996
293.258
293.488
293.739
294.018
294.285
294.494
294.608
294.638
294.616
294.523
294.283
293.812
293.121
292.314
291.513
290.831
290.349
289.987
289.525
0.000146179
0.000827583
0.0036126
0.0149674
0.056232
0.195019
0.599388
1.62776
3.90376
8.33143
15.7676
26.5168
40.0889
55.3874
71.4342
87.5417
103.415
118.899
133.991
148.54
162.645
176.098
188.972
201.356
212.978
223.868
234.095
243.547
252.134
259.867
266.723
272.67
277.612
281.67
285.041
287.717
289.714
291.204
292.261
292.826
293.135
293.389
293.606
293.841
294.11
294.375
294.594
294.728
294.788
294.801
294.751
294.563
294.151
293.518
292.762
291.992
291.319
290.827
290.42
289.858
0.000145749
0.000824933
0.00359955
0.0149105
0.0560092
0.19425
0.597146
1.62208
3.89126
8.30762
15.7291
26.4637
40.0268
55.323
71.3751
87.4854
103.363
118.849
133.929
148.469
162.56
176.025
188.921
201.274
212.863
223.756
233.999
243.458
252.04
259.771
266.606
272.544
277.517
281.597
284.965
287.645
289.626
291.103
292.159
292.697
293.002
293.272
293.506
293.761
294.055
294.347
294.592
294.753
294.839
294.88
294.864
294.72
294.359
293.785
293.09
292.373
291.735
291.264
290.853
290.239
0.000145331
0.000822329
0.00358655
0.014853
0.0557793
0.193441
0.594717
1.61572
3.87658
8.27816
15.6778
26.3852
39.9183
55.1851
71.2086
87.298
103.157
118.627
133.709
148.246
162.342
175.792
188.659
201.037
212.659
223.555
233.789
243.246
251.842
259.591
266.472
272.454
277.419
281.495
284.889
287.586
289.602
291.116
292.201
292.779
293.095
293.357
293.576
293.811
294.087
294.364
294.601
294.76
294.849
294.897
294.896
294.777
294.452
293.922
293.276
292.61
292.022
291.6
291.23
290.611
0.000144931
0.000819878
0.00357452
0.0148007
0.0555752
0.192739
0.592674
1.61055
3.86521
8.25649
15.6427
26.3368
39.8614
55.126
71.1546
87.2473
103.112
118.585
133.657
148.187
162.272
175.733
188.623
200.974
212.568
223.468
233.717
243.183
251.776
259.523
266.386
272.361
277.355
281.452
284.845
287.545
289.545
291.051
292.131
292.681
292.995
293.266
293.493
293.736
294.019
294.302
294.542
294.703
294.792
294.841
294.846
294.742
294.442
293.947
293.345
292.728
292.192
291.823
291.514
290.925
0.000144539
0.00081743
0.00356225
0.0147463
0.0553571
0.191971
0.59036
1.60448
3.85121
8.22842
15.5939
26.2622
39.7586
54.9958
70.9974
87.0696
102.916
118.373
133.444
147.97
162.058
175.505
188.366
200.738
212.36
223.262
233.502
242.964
251.568
259.332
266.235
272.25
277.238
281.331
284.747
287.464
289.499
291.036
292.146
292.735
293.056
293.318
293.529
293.749
294.008
294.269
294.488
294.632
294.704
294.739
294.737
294.636
294.348
293.875
293.304
292.727
292.24
291.931
291.7
291.161
0.000144171
0.000815176
0.00355126
0.0146987
0.055172
0.191335
0.588516
1.59983
3.84096
8.20886
15.5621
26.2182
39.7069
54.9419
70.9484
87.0245
102.876
118.337
133.402
147.923
162.002
175.46
188.343
200.693
212.29
223.199
233.454
242.923
251.525
259.29
266.18
272.19
277.203
281.314
284.73
287.449
289.469
291.003
292.106
292.668
292.985
293.251
293.459
293.674
293.926
294.176
294.382
294.51
294.566
294.583
294.569
294.462
294.178
293.719
293.172
292.632
292.189
291.938
291.788
291.312
0.000143801
0.000812856
0.00353957
0.0146467
0.0549629
0.190598
0.586292
1.59399
3.82752
8.18196
15.5155
26.1472
39.6093
54.8185
70.7995
86.8557
102.689
118.134
133.197
147.712
161.791
175.236
188.092
200.456
212.078
222.989
233.235
242.698
251.308
259.088
266.016
272.064
277.073
281.177
284.611
287.347
289.401
290.964
292.097
292.695
293.015
293.268
293.458
293.647
293.87
294.091
294.269
294.369
294.398
294.39
294.354
294.234
293.944
293.488
292.954
292.439
292.036
291.843
291.781
291.379
0.000143463
0.00081081
0.00352967
0.014604
0.0547975
0.190031
0.584651
1.58985
3.81839
8.16447
15.487
26.1076
39.5625
54.7699
70.7555
86.8161
102.656
118.106
133.163
147.676
161.748
175.205
188.083
200.428
212.03
222.948
233.209
242.678
251.287
259.07
265.99
272.035
277.063
281.183
284.616
287.353
289.395
290.956
292.081
292.65
292.961
293.21
293.387
293.558
293.762
293.962
294.116
294.192
294.195
294.159
294.099
293.959
293.656
293.194
292.666
292.17
291.799
291.656
291.683
291.362
0.000143112
0.00080858
0.00351837
0.0145536
0.0545945
0.189316
0.582492
1.5842
3.8054
8.13855
15.4422
26.0396
39.4695
54.6526
70.6143
86.6553
102.477
117.911
132.965
147.471
161.541
174.984
187.835
200.193
211.815
222.733
232.985
242.448
251.064
258.86
265.812
271.891
276.917
281.03
284.479
287.234
289.307
290.891
292.043
292.643
292.952
293.186
293.343
293.489
293.665
293.836
293.962
294.01
293.983
293.916
293.827
293.658
293.333
292.854
292.317
291.826
291.477
291.38
291.497
291.263
0.000142808
0.000806766
0.00350966
0.0145163
0.0544502
0.18882
0.581062
1.58057
3.79738
8.12311
15.4169
26.0043
39.4276
54.609
70.5752
86.6212
102.45
117.889
132.94
147.444
161.511
174.966
187.837
200.181
211.787
222.711
232.977
242.448
251.065
258.863
265.808
271.884
276.927
281.056
284.507
287.263
289.323
290.905
292.046
292.616
292.914
293.138
293.279
293.404
293.558
293.707
293.81
293.834
293.778
293.679
293.556
293.354
292.996
292.489
291.931
291.434
291.095
291.031
291.232
291.087
0.000142466
0.000804568
0.00349848
0.0144663
0.0542494
0.188116
0.578938
1.57504
3.78473
8.09798
15.3736
25.9389
39.3387
54.4972
70.4408
86.4676
102.278
117.701
132.747
147.244
161.307
174.747
187.593
199.947
211.569
222.49
232.746
242.214
250.839
258.647
265.617
271.723
276.77
280.898
284.366
287.14
289.227
290.828
291.994
292.593
292.891
293.105
293.233
293.341
293.476
293.606
293.688
293.688
293.604
293.474
293.314
293.074
292.674
292.124
291.527
290.999
290.651
290.608
290.888
290.836
0.000142204
0.000803038
0.00349121
0.0144352
0.0541287
0.187699
0.57773
1.57194
3.77782
8.08456
15.3515
25.9077
39.3012
54.4581
70.4057
86.4377
102.255
117.684
132.729
147.225
161.287
174.739
187.605
199.948
211.557
222.487
232.758
242.236
250.865
258.677
265.642
271.748
276.814
280.961
284.435
287.211
289.288
290.885
292.04
292.612
292.898
293.106
293.22
293.311
293.429
293.541
293.603
293.582
293.474
293.314
293.122
292.844
292.4
291.797
291.144
290.566
290.183
290.136
290.477
290.512
0.000141856
0.000800784
0.00347975
0.0143843
0.0539254
0.186991
0.575606
1.56644
3.76528
8.0596
15.3082
25.8418
39.2109
54.3438
70.2677
86.2793
102.078
117.489
132.526
147.015
161.068
174.507
187.35
199.699
211.323
222.25
232.515
241.992
250.628
258.449
265.435
271.57
276.645
280.795
284.285
287.078
289.176
290.792
291.973
292.577
292.874
293.086
293.203
293.291
293.402
293.501
293.549
293.51
293.382
293.2
292.984
292.679
292.199
291.545
290.82
290.155
289.701
289.614
289.994
290.113
0.000141214
0.00079717
0.00346297
0.0143127
0.0536457
0.186012
0.572736
1.55893
3.74825
8.02605
15.2524
25.762
39.1123
54.2349
70.1617
86.1775
101.986
117.405
132.439
146.916
160.97
174.441
187.325
199.647
211.24
222.186
232.486
241.989
250.633
258.455
265.423
271.56
276.685
280.876
284.382
287.185
289.273
290.9
292.077
292.646
292.948
293.17
293.277
293.34
293.419
293.489
293.511
293.453
293.309
293.112
292.883
292.569
292.076
291.399
290.615
289.816
289.148
288.8
289.012
290.482
0.000140757
0.000795829
0.00346343
0.0143374
0.0538233
0.186817
0.575717
1.56799
3.77126
8.07498
15.3403
25.8977
39.2935
54.448
70.3874
86.4075
102.219
117.632
132.682
147.187
161.252
174.671
187.5
199.878
211.519
222.435
232.685
242.163
250.805
258.621
265.603
271.73
276.78
280.912
284.4
287.182
289.241
290.826
291.988
292.535
292.77
292.927
292.978
292.994
293.041
293.089
293.098
293.034
292.893
292.708
292.495
292.201
291.736
291.103
290.38
289.649
289.05
288.745
288.989
290.468
0.000139939
0.000791536
0.00344476
0.0142599
0.0535208
0.185731
0.572377
1.55879
3.74906
8.02847
15.257
25.7683
39.1174
54.2359
70.1565
86.1695
101.974
117.392
132.435
146.901
160.967
174.449
187.316
199.649
211.254
222.195
232.488
241.99
250.641
258.455
265.424
271.58
276.695
280.865
284.377
287.178
289.258
290.887
292.063
292.609
292.88
293.081
293.15
293.157
293.184
293.208
293.192
293.106
292.945
292.74
292.514
292.213
291.751
291.126
290.402
289.663
289.04
288.713
288.984
290.513
0.000139269
0.000788711
0.00343719
0.0142474
0.053548
0.186022
0.573907
1.56434
3.76504
8.06551
15.329
25.8879
39.2893
54.4497
70.3962
86.4177
102.236
117.646
132.695
147.203
161.26
174.675
187.504
199.88
211.517
222.431
232.683
242.162
250.807
258.619
265.593
271.721
276.776
280.903
284.388
287.163
289.191
290.763
291.913
292.419
292.624
292.767
292.791
292.771
292.79
292.822
292.831
292.785
292.679
292.545
292.402
292.198
291.85
291.366
290.817
290.266
289.821
289.666
290.087
291.724
0.000138512
0.000785035
0.0034229
0.0141934
0.0533505
0.185325
0.571743
1.55816
3.74922
8.03026
15.2615
25.7759
39.1252
54.2398
70.1537
86.1625
101.962
117.378
132.43
146.884
160.962
174.458
187.309
199.649
211.264
222.203
232.487
241.985
250.638
258.446
265.42
271.589
276.694
280.843
284.353
287.156
289.233
290.869
292.052
292.582
292.832
293.026
293.076
293.06
293.071
293.094
293.093
293.04
292.933
292.798
292.656
292.463
292.142
291.694
291.193
290.694
290.313
290.251
290.791
292.58
0.000137756
0.000781547
0.00341129
0.0141601
0.0532838
0.18527
0.572192
1.56088
3.75904
8.05615
15.3173
25.8768
39.2829
54.449
70.4032
86.4274
102.254
117.661
132.712
147.221
161.269
174.679
187.506
199.88
211.514
222.428
232.681
242.161
250.808
258.617
265.586
271.716
276.776
280.897
284.381
287.148
289.15
290.712
291.852
292.325
292.508
292.645
292.657
292.621
292.629
292.661
292.681
292.658
292.59
292.501
292.404
292.256
291.981
291.583
291.138
290.728
290.471
290.538
291.224
293.177
0.000136978
0.000777872
0.00339805
0.0141147
0.0531361
0.184795
0.570802
1.55692
3.74848
8.03104
15.2655
25.7842
39.1355
54.2471
70.1539
86.1573
101.951
117.363
132.421
146.866
160.957
174.468
187.305
199.65
211.273
222.21
232.487
241.981
250.634
258.436
265.414
271.59
276.687
280.819
284.324
287.13
289.206
290.847
292.036
292.556
292.788
292.974
293.012
292.976
292.97
292.985
292.984
292.939
292.843
292.72
292.586
292.408
292.11
291.688
291.217
290.765
290.463
290.505
291.199
293.204
0.000136181
0.000774103
0.00338476
0.0140719
0.0530201
0.184539
0.570529
1.55756
3.75327
8.04704
15.3054
25.8647
39.2746
54.4458
70.408
86.4358
102.27
117.678
132.733
147.242
161.278
174.682
187.507
199.88
211.512
222.424
232.676
242.159
250.809
258.616
265.579
271.711
276.776
280.896
284.38
287.14
289.117
290.668
291.797
292.241
292.404
292.533
292.533
292.484
292.479
292.506
292.531
292.526
292.488
292.439
292.387
292.298
292.099
291.789
291.445
291.135
290.978
291.151
291.95
294.025
0.000135368
0.000770229
0.003371
0.0140263
0.0528838
0.184152
0.569546
1.55503
3.74663
8.03041
15.2683
25.7925
39.148
54.2581
70.158
86.1546
101.943
117.349
132.41
146.847
160.952
174.478
187.303
199.652
211.283
222.218
232.487
241.978
250.63
258.428
265.405
271.584
276.673
280.791
284.288
287.097
289.176
290.826
292.021
292.53
292.751
292.927
292.952
292.9
292.882
292.895
292.902
292.878
292.815
292.732
292.645
292.53
292.318
291.998
291.65