/*--------------------------------*- C++ -*----------------------------------*\
| =========                 |                                                 |
| \\      /  F ield         | OpenFOAM: The Open Source CFD Toolbox           |
|  \\    /   O peration     | Version:  5.x                                   |
|   \\  /    A nd           | Web:      www.OpenFOAM.org                      |
|    \\/     M anipulation  |                                                 |
\*---------------------------------------------------------------------------*/
/*   Windows 32 and 64 bit porting by blueCAPE: http://www.bluecape.com.pt   *\
|  Based on Windows porting (2.0.x v4) by Symscape: http://www.symscape.com   |
\*---------------------------------------------------------------------------*/
FoamFile
{
    version     2.0;
    format      ascii;
    class       volScalarField;
    location    "0.007";
    object      p;
}
// * * * * * * * * * * * * * * * * * * * * * * * * * * * * * * * * * * * * * //

dimensions      [1 -1 -2 0 0 0 0];

internalField   nonuniform List<scalar> 
10000
(
99999.9
99999.6
99998.3
99993
99972.8
99904.9
99704.2
99202.2
98115
96079.8
92852
88523.7
83522.9
78340.3
73344.2
68660.2
64334.8
60347.7
56698.2
53354.4
50299.9
47533.5
45017.1
42747.5
40710.6
38898.1
37299.5
35899.7
34695.2
33668.9
32821.1
32155.3
31642.5
31235
30950.4
30750.7
30608.8
30520.4
30488.3
30476.9
30474.7
30473.1
30473.5
30474.5
30477.2
30483.8
30483.8
30483.3
30480.2
30464.9
30465.4
30464.3
30460
30449.8
30436.2
30428.9
30421.2
30410.8
30418.7
30436.8
99999.9
99999.6
99998.4
99993.1
99973.4
99906.9
99710.6
99219.1
98153.2
96152.7
92969.4
88685.3
83717.9
78554.7
73567.1
68886
64560.3
60570.4
56918
53569.5
50509.2
47734.9
45212
42934.1
40887.8
39063.6
37452.6
36041.7
34823.7
33782.5
32920.2
32242.5
31710.2
31292.1
30990.6
30779.3
30629
30532
30493.3
30484.8
30472.8
30472.7
30472.8
30473.5
30475.5
30480.5
30486.7
30485.9
30482.9
30471.1
30472
30470.9
30466.1
30454.1
30441.3
30438.1
30433.8
30428.1
30429.7
30441
99999.9
99999.6
99998.4
99993.1
99973.4
99907.2
99711.2
99220.6
98156
96157.6
92976.2
88692.9
83725.7
78561.6
73573.2
68890.8
64564.3
60575.2
56920.5
53573.1
50510.9
47738.9
45213.9
42934.5
40887.4
39064.1
37453.4
36039.9
34822.1
33779.6
32913.9
32229
31702.6
31281.1
30984.7
30775.7
30626.6
30531.4
30493.7
30475.8
30469.9
30470.7
30470.8
30471
30473.1
30477.7
30482.2
30484.2
30484.1
30476.9
30472.6
30470.7
30466
30460.9
30455.4
30448.7
30444
30434.2
30425.8
30419.1
99999.9
99999.6
99998.4
99993.2
99973.9
99908.9
99716.6
99234.9
98188.7
96220.6
93078.9
88836.3
83900.7
78756
73776.6
69098.2
64772.3
60779.8
57124.2
53772.3
50705.3
47924.9
45395.7
43109.7
41054.3
39219.4
37597.4
36175.2
34942.9
33888.7
33012.2
32318.4
31773.3
31343.4
31028
30810.5
30651.8
30546.7
30504.8
30485.5
30474.1
30471.6
30472
30472.7
30474.5
30478.2
30483.2
30486.3
30485.7
30476.7
30475.4
30475.5
30474.8
30472.2
30461.9
30453.6
30442
30427.7
30414.7
30398.1
99999.9
99999.6
99998.4
99993.3
99974
99909.3
99717.7
99237.5
98193.7
96229.3
93091
88849.9
83914.4
78768.5
73787.6
69107
64779.6
60788.7
57129.2
53778.1
50709.9
47931.5
45399.1
43110.8
41054.2
39220.4
37598.8
36173.5
34943.1
33889
33007
32301
31766.5
31331.3
31020.2
30801.2
30645.7
30539.2
30500.1
30475.4
30469.5
30469.2
30469.7
30470.6
30472.5
30476.3
30481.8
30482.2
30481.8
30472.3
30472
30474.9
30474.9
30473.4
30465.5
30450.8
30433.6
30404
30393.6
30386.2
99999.9
99999.7
99998.4
99993.4
99974.4
99910.7
99722.2
99249.6
98221.7
96283.7
93180.9
88977.2
84071.9
78944.8
73973.3
69297.6
64971.6
60976.5
57318.3
53962.9
50890
48103.5
45568.9
43275.2
41211.2
39366.6
37734.1
36300.9
35056.5
33991.6
33098
32390.1
31830.9
31390
31062.4
30839
30671.2
30559.8
30515.1
30487.3
30474
30473.9
30473.6
30473.6
30474.3
30477.1
30479.3
30480.6
30483.6
30479.3
30479.4
30479.8
30479.1
30474.7
30467.6
30454.3
30438.1
30404.7
30394.1
30376.4
99999.9
99999.7
99998.4
99993.4
99974.5
99911.3
99723.6
99252.9
98228.3
96295.3
93197.2
88995.7
84090.2
78961.6
73988.3
69309.5
64981.6
60989.2
57325.4
53970.9
50897.3
48112.7
45573.6
43277.2
41212.1
39369.3
37737
36301.1
35058.4
33990.9
33098.4
32373.6
31828.3
31381.7
31057
30828.4
30668.2
30549.7
30506.2
30477.8
30468
30468.2
30468.7
30469.6
30471.9
30474.7
30477.3
30479.2
30479.8
30476.3
30476.2
30476.6
30475.1
30468.3
30456.9
30440.1
30429.1
30417.8
30386.3
30370.3
99999.9
99999.7
99998.4
99993.5
99974.9
99912.5
99727.4
99263.2
98252.3
96342.6
93276
89108.9
84232.1
79122
74158.1
69485
65158.8
61161.3
57500.8
54141.9
51064.1
48271.1
45732
43431.3
41359.1
39505.3
37862.8
36419.6
35163.7
34092.1
33181.9
32456.6
31884.9
31434.1
31094.2
30863.1
30688.2
30573.2
30522.6
30490.3
30475
30474.9
30474.8
30474.4
30474.7
30476.8
30479.9
30482.5
30485
30481.3
30481.3
30481.3
30478.9
30471.1
30458.1
30442.3
30430.8
30432.6
30396.3
30381.4
99999.9
99999.7
99998.4
99993.5
99975
99913.1
99729
99267.1
98260.1
96356.2
93295.4
89131.1
84254.2
79141.8
74176
69499.2
65170.8
61177.2
57509.6
54151.8
51073.6
48282.4
45737.6
43434
41361.4
39509.8
37868.4
36422.9
35166.9
34088.7
33183.4
32444.2
31887.4
31431.8
31092.4
30857.8
30690.5
30558.1
30511.7
30482
30466.9
30467.3
30468.1
30469
30471.6
30476.2
30478.5
30481
30482.2
30482.2
30474.4
30475.4
30473.1
30466.7
30453.5
30433.8
30427.8
30427.7
30390.2
30371
99999.9
99999.7
99998.5
99993.6
99975.3
99914.1
99732.3
99276
98280.9
96397.4
93364.7
89231.8
84381.9
79288.2
74331.7
69661
65334.7
61335.3
57672.4
54309.7
51228.2
48429
45885.3
43578
41498.6
39636.4
37985
36532.3
35265.7
34185.1
33262.4
32520.1
31938.3
31477.1
31124.9
30885.8
30708.1
30585.3
30530.2
30494.2
30476.6
30476.8
30476.7
30476.5
30477.1
30479.1
30482.3
30484.9
30486.6
30486.5
30479.9
30481.6
30480.2
30473.9
30461.8
30449.3
30440.6
30427
30392.2
30370
99999.9
99999.7
99998.5
99993.6
99975.5
99914.7
99734
99280.1
98289.4
96412.4
93386.3
89257
84407
79310.3
74351.6
69676.9
65348.2
61353.1
57682.5
54321.3
51239.2
48441.9
45891.8
43581.2
41501.5
39642.1
37992
36538.3
35269
34182.9
33262
32513.8
31942.4
31478.5
31125.1
30882.9
30709.4
30568.1
30516.7
30487.4
30468.6
30469.1
30470.1
30471.2
30473.3
30477
30480.8
30483.7
30486
30484.9
30474.3
30475.7
30475.2
30470
30460.6
30446.7
30422.5
30415.2
30403.1
30370
99999.9
99999.7
99998.5
99993.7
99975.7
99915.6
99736.8
99287.8
98307.4
96448.6
93447.4
89346.7
84522.1
79444
74494.7
69826.4
65500
61498.7
57833.7
54466.8
51382.7
48577.3
46029.1
43716.2
41629.8
39760
38100.4
36639.2
35362.6
34272.5
33339.1
32581
31991.1
31519.6
31157.4
30911.5
30729.6
30595.2
30538.6
30499.2
30478.7
30478.7
30478.5
30478
30478.3
30480.5
30484.9
30487.8
30490.7
30490.2
30479.8
30481
30480.5
30475.8
30470.3
30456.9
30426.4
30422.8
30417.2
30394.2
99999.9
99999.7
99998.5
99993.7
99975.9
99916.3
99738.6
99292.1
98316.3
96464.4
93470.5
89373.9
84549.5
79467.9
74516.1
69843.3
65514.5
61517.7
57844.8
54480.7
51395.1
48591.6
46036.7
43719.7
41633.4
39766.6
38107.9
36645.5
35365.6
34273
33336.7
32579.9
31994.9
31521.7
31156.5
30907.7
30727.6
30579.8
30525
30492.1
30470.9
30471.5
30472
30472.8
30474.4
30478.2
30483.7
30486.7
30486.4
30484.9
30472.7
30473.8
30473.6
30470.2
30466.4
30449.9
30420.7
30419.7
30414
30401.6
99999.9
99999.7
99998.5
99993.8
99976.1
99917.1
99741.1
99298.9
98332.1
96496.3
93524.6
89454
84653.3
79590
74647.5
69981.7
65655.3
61652.2
57985.4
54614
51528.1
48716.6
46164.3
43846.5
41753.4
39876.5
38209.2
36740
35454.6
34355.4
33411.6
32640.5
32042
31560.3
31189.2
30935
30749.2
30605.4
30544.6
30504.2
30481.4
30481.2
30480.7
30479.7
30479.9
30480.9
30485.8
30487.8
30487.9
30487.4
30477.3
30478.2
30478.1
30476.3
30471.1
30454
30427.4
30426.5
30412.2
30401.6
99999.9
99999.7
99998.5
99993.8
99976.3
99917.7
99742.9
99303.2
98341.1
96512.4
93548.5
89482.6
84682.3
79615.2
74670
69999.2
65670.4
61672.1
57997.2
54629.7
51541.6
48732
46172.5
43850.3
41757.4
39883.6
38216.9
36746.6
35456.8
34356.2
33407.3
32641.1
32044.9
31562
31186.4
30931.3
30744.5
30590.8
30532.5
30495.7
30474.4
30474.9
30475.2
30475.6
30476.6
30478.7
30484.2
30485
30484.7
30483.1
30471
30470.4
30471.4
30470.4
30465.2
30449.4
30425.8
30421
30404.4
30384.9
99999.9
99999.7
99998.5
99993.9
99976.5
99918.4
99745.1
99309.2
98355.1
96540.7
93596.8
89554.3
84776.1
79726.7
74791
70127.6
65801.1
61796.4
58127.9
54752.5
51664.8
48847.8
46292.5
43969.3
41870.1
39986.3
38311.6
36835.2
35541.3
34434.3
33481.6
32697.8
32090.3
31599.6
31220.1
30956.9
30767.6
30614.4
30550.5
30509.3
30484.2
30483.8
30483
30481.6
30481.8
30483.3
30484.2
30486.4
30487
30486.4
30477.2
30475.5
30476.5
30475.9
30471.3
30460.7
30435.8
30422.9
30395.8
30381.7
99999.9
99999.7
99998.5
99993.9
99976.6
99919
99746.8
99313.4
98364
96556.9
93620.9
89583.7
84806.2
79752.9
74814.2
70145.3
65816.7
61816.9
58140.3
54769.6
51679.3
48863.8
46300.5
43973.2
41874.3
39993.8
38319.7
36842
35543.1
34434.8
33475.7
32698.1
32092.4
31600.7
31215.8
30954.1
30759.7
30603.8
30539.1
30498.7
30477.8
30478.3
30478.6
30478.8
30480.4
30482.9
30481.2
30484.2
30484.7
30483.2
30471.7
30470.1
30471.8
30471
30465.7
30452.5
30433.2
30419.7
30386.5
30371
99999.9
99999.7
99998.5
99993.9
99976.8
99919.6
99748.7
99318.8
98376.5
96582.1
93664.1
89648.1
84891.1
79854.9
74925.5
70264.5
65938
61932.3
58261.9
54881.6
51793.4
48971
46412.5
44084.6
41979.7
40089.4
38408
36924.7
35623.6
34509.1
33548
32753
32135.8
31636.5
31253.1
30979.5
30785.4
30623.6
30556.6
30513.1
30486.7
30486.2
30485.3
30484
30484.4
30485.7
30483.8
30485.6
30487.1
30486.3
30476.6
30475.8
30477.5
30476.5
30472.8
30457.2
30439.2
30422.5
30396.7
30360.7
99999.9
99999.7
99998.5
99994
99977
99920.2
99750.4
99322.9
98385.2
96598.1
93688.2
89677.7
84921.7
79881.6
74949.1
70282.1
65953.6
61952.5
58274.9
54900.4
51808.9
48987.3
46420.7
44088.4
41983.9
40097.3
38416.4
36931.8
35625.1
34509.2
33541.3
32752.9
32137.5
31637.7
31243.7
30976.3
30773.7
30616.3
30544.7
30499.6
30481.2
30481.6
30481.7
30482
30482.4
30484.5
30483.2
30484.5
30485.4
30484.2
30474.6
30469.6
30471.8
30470.9
30468.4
30449.5
30431.7
30410.8
30394.5
30351.4
99999.9
99999.7
99998.5
99994
99977.1
99920.8
99752.2
99327.7
98396.4
96620.8
93727
89735.8
84998.7
79975
75051.7
70392.9
66066.6
62059.7
58387.5
55003.4
51914.6
49086.6
46525
44192.9
42082.6
40186.6
38498.8
37009
35701.2
34579.5
33610.4
32806.4
32178.1
31671.7
31287.4
31001.1
30800.8
30634.7
30564.8
30517.5
30489
30488.1
30486.8
30485.9
30485.8
30486.9
30485.3
30486.4
30487.7
30487.3
30483.4
30470.8
30474.5
30474.5
30472
30455.5
30432.2
30407.2
30394.1
30347.2
99999.9
99999.7
99998.6
99994.1
99977.3
99921.3
99753.7
99331.7
98404.8
96636.3
93750.6
89765.2
85029.5
80001.9
75075.3
70410.4
66081.9
62079.5
58401.1
55022.9
51930.5
49103.1
46534.1
44196.8
42087.2
40195
38507.7
37016.6
35703
34580.5
33603.7
32805.9
32179.6
31673.3
31271
30997.3
30787.5
30630.5
30549.9
30500.6
30484.3
30484.2
30484.2
30484.3
30484.5
30486.1
30484.8
30486.5
30487.3
30486.1
30480.8
30465.3
30467.9
30467.7
30464.1
30451.1
30427
30399.5
30383.4
30342.6
99999.9
99999.7
99998.6
99994.1
99977.4
99921.8
99755.4
99336.1
98415
96656.8
93785.7
89817.8
85099.5
80087.5
75170.1
70513.3
66187.2
62178.4
58505.5
55118.4
52028.6
49195.4
46629.9
44294.5
42179.9
40278.3
38584.5
37088.5
35774.3
34646.2
33669.4
32858.2
32217.4
31705.5
31318
31020.5
30813.8
30646.7
30574.9
30521.6
30491
30488.9
30487.3
30487.1
30487.1
30488.1
30486.8
30488.3
30488.7
30488.2
30483.7
30467.7
30470.4
30469.7
30465.4
30453.6
30432.1
30400.5
30380.2
30343.4
99999.9
99999.7
99998.6
99994.1
99977.6
99922.3
99756.8
99339.8
98423
96671.7
93808.6
89846.6
85130
80114.3
75193.5
70530.7
66202.4
62198.3
58519.5
55137.7
52044.6
49211.7
46640.6
44299.1
42185.2
40287.1
38593.7
37096.5
35776.8
34647.6
33663
32857.7
32219
31707.4
31300.1
31017.7
30801.3
30645.7
30556.3
30501
30487.7
30485.3
30485.8
30485.9
30486.2
30487.4
30487.3
30488.6
30488.1
30486.3
30480.5
30464.1
30465.9
30465.9
30461.9
30449.4
30428.5
30394.8
30379.9
30343
99999.9
99999.7
99998.6
99994.2
99977.7
99922.8
99758.3
99343.8
98432.3
96690.4
93840.5
89894.4
85193.8
80192.9
75281
70626.2
66300.3
62290
58616.4
55226.1
52135.7
49297.5
46728.7
44390.4
42271
40364.6
38665.2
37163.3
35843.1
34709
33725.2
32908.4
32254.6
31737.1
31345.1
31039.2
30826.9
30660.1
30584
30525.1
30493.5
30489
30488.4
30487.6
30487.7
30488
30488.4
30489.3
30487.6
30484.9
30481
30471.9
30466.9
30468.7
30465.4
30450.6
30430.2
30394.3
30383.5
30348.6
99999.9
99999.7
99998.6
99994.2
99977.8
99923.3
99759.7
99347.3
98439.9
96704.6
93862.5
89922.5
85223.7
80219.4
75304.2
70643.3
66315.4
62309.8
58630.5
55244.9
52151.7
49313.7
46739.8
44395.1
42276.9
40373.6
38674.8
37171.7
35846.5
34711
33719
32907.9
32256.2
31739.3
31328.6
31038.2
30813.9
30660.2
30565.1
30502
30490.3
30487.1
30486.4
30486.6
30487.2
30487.4
30488.8
30489.1
30486.9
30482.9
30480.3
30475
30466.1
30467
30463
30448
30424.7
30389
30382.1
30359.9
99999.9
99999.7
99998.6
99994.2
99977.9
99923.8
99761.1
99351
98448.4
96721.7
93891.7
89966.1
85282.2
80291.7
75385
70732
66406.4
62395.2
58720.5
55326.2
52236.4
49393.4
46822.5
44480.5
42356.6
40445.8
38741.3
37233.9
35908.5
34767.6
33778.2
32955.8
32289.7
31767.1
31370.9
31059.3
30841
30673.2
30590.1
30527.1
30495.2
30490
30488.4
30488.1
30488
30487.8
30488.9
30488.7
30487.2
30482.3
30480.3
30475.9
30471.1
30469.8
30464.4
30449.6
30425.6
30387.4
30383.2
30372.2
99999.9
99999.7
99998.6
99994.3
99978.1
99924.2
99762.4
99354.3
98455.6
96735.2
93912.7
89993.1
85311.2
80317.7
75407.7
70748.9
66421.5
62414.8
58734.7
55345.2
52252.2
49409.5
46833.3
44485.1
42362.9
40455
38751
37242.4
35911.9
34770.5
33772
32956.2
32292.1
31768.4
31357
31058.8
30827.8
30673.3
30573.7
30503.8
30492.7
30488.2
30486.8
30486.8
30487.3
30487.8
30488.7
30488.2
30487.2
30482.2
30480.8
30476.5
30470.7
30468
30462.4
30450.2
30421.4
30384.2
30380.5
30377.1
99999.9
99999.7
99998.6
99994.3
99978.2
99924.6
99763.7
99357.7
98463.4
96750.9
93939.5
90033.2
85364.9
80384.2
75482.5
70831.3
66505.9
62494.7
58818.3
55420.4
52330.9
49483.4
46909.6
44564.6
42436.9
40522.1
38813
37300.3
35969.9
34822.9
33827.1
33000.5
32323.3
31795.6
31394.9
31078.9
30853.6
30685.2
30596.6
30528.8
30497
30490.5
30488.4
30487.9
30488
30488.4
30488.3
30487.8
30486.8
30483.3
30482.4
30477.9
30470
30467.3
30463.7
30455.4
30424.2
30385.2
30376.7
30375.1
99999.9
99999.7
99998.6
99994.3
99978.3
99925
99764.9
99360.8
98470.1
96763.6
93959.4
90059
85392.8
80409.5
75504.6
70847.7
66520.9
62513.7
58832.4
55439.4
52346.3
49499.3
46920.7
44569.6
42443.7
40531.5
38822.8
37308.7
35973.3
34826.5
33822.1
33001.5
32326.3
31796.3
31383.1
31077.6
30841.5
30685.2
30581.9
30506.9
30495.2
30489.1
30487
30487
30487.3
30488.1
30487.8
30487.4
30486.1
30484.4
30483.5
30477.9
30469.5
30467.1
30464.5
30456.4
30418.3
30386.8
30372.2
30367.2
99999.9
99999.7
99998.6
99994.3
99978.4
99925.4
99766.1
99364
98477.3
96778.1
93984.2
90096
85442.4
80471
75574
70924.3
66599.2
62588.5
58910.1
55509.8
52419.6
49568
46991.3
44643.6
42512.3
40593.9
38880.5
37362.9
36027.7
34874.9
33873.3
33042.3
32355.6
31822.7
31417.3
31095.9
30864.2
30696.3
30599.8
30530.5
30499
30491.5
30488.3
30487.7
30487.8
30488.1
30487.5
30487.2
30485.8
30485.3
30484.5
30477.8
30470.4
30468.3
30467.5
30459.7
30419.2
30391.4
30371.2
30356.5
99999.9
99999.7
99998.6
99994.4
99978.5
99925.8
99767.2
99366.8
98483.6
96790
94002.9
90120.3
85469
80495.3
75595.3
70940.4
66613.9
62605.7
58923.8
55528
52434.5
49583.6
47002.5
44649.1
42519.6
40603.2
38890.1
37371
36031.2
34878.7
33869.6
33043.6
32359
31822.9
31408.4
31094.5
30854.4
30696.4
30590.5
30510.9
30497.6
30490.8
30487.1
30486.9
30487.1
30487.6
30487.1
30486.9
30485.6
30485.6
30484.8
30477.1
30471.1
30468.9
30468.7
30457.7
30416.1
30394.3
30371.2
30344.7
99999.9
99999.7
99998.6
99994.4
99978.6
99926.2
99768.3
99369.8
98490.3
96803.5
94025.9
90154.6
85514.9
80552.3
75659.7
71011.5
66686.7
62675
58996.1
55593.9
52502.9
49647.5
47068.6
44717.9
42583.4
40661.4
38944
37421.7
36082.1
34923.8
33917.3
33081.5
32386.4
31848.4
31437.8
31111.9
30874.6
30706.9
30602.9
30532.3
30501.2
30493.4
30488.1
30487.3
30487.3
30487.3
30487
30486.7
30485.6
30485.8
30485.1
30477.3
30472.9
30470.2
30470.7
30458.6
30418.9
30397.6
30370.5
30333.5
99999.9
99999.7
99998.6
99994.4
99978.7
99926.5
99769.3
99372.4
98496.2
96814.6
94043.5
90177.6
85540.1
80575.5
75680.2
71027.1
66701
62691.6
59009.5
55611.1
52517.1
49662.7
47079.7
44723.6
42590.8
40670.5
38953.3
37429.5
36085.8
34927.6
33914.4
33082.9
32390.1
31848.4
31432
31111
30866.4
30707.1
30597.8
30515.6
30500.2
30493.1
30487.1
30486.6
30486.7
30486.7
30486.5
30486.3
30485.6
30485.8
30485
30478.7
30473.4
30470.8
30468.4
30455.3
30420.3
30398.1
30364.6
30320
99999.9
99999.7
99998.6
99994.4
99978.8
99926.9
99770.4
99375.2
98502.5
96827.2
94064.9
90209.5
85582.8
80628.5
75740
71093.3
66768.8
62754.8
59076.8
55672.5
52581
49722.2
47141.5
44788.1
42650.4
40724.9
39003.7
37477.1
36133.4
34969.9
33958.9
33118.2
32415.8
31872.5
31456.9
31127.6
30884.9
30716.7
30607.5
30534.4
30503.6
30495.5
30487.9
30486.9
30486.8
30486.5
30486.3
30486
30485.5
30485.8
30485.3
30482.2
30472.1
30469.7
30465.4
30454.5
30426
30398.8
30356
30307
99999.9
99999.7
99998.6
99994.5
99978.9
99927.2
99771.3
99377.7
98507.9
96837.6
94081.2
90231
85606.6
80650.6
75759.6
71108.4
66782.6
62771.9
59089.7
55688.8
52594.5
49736.9
47152.1
44793.6
42657.7
40733.7
39012.7
37484.5
36137.1
34973.7
33956.8
33119.6
32419.7
31872.5
31453.8
31127
30877.7
30716.9
30605.3
30521.9
30503
30495.4
30487.1
30486.5
30486.5
30486.1
30486
30485.7
30485.4
30485.6
30485.7
30483.8
30471.1
30465.9
30460.3
30450.6
30430.5
30397.1
30346.5
30295.8
99999.9
99999.7
99998.6
99994.5
99979
99927.5
99772.3
99380.2
98513.8
96849.4
94101.4
90260.9
85646.4
80699.8
75815.3
71170
66845.7
62830.2
59152.5
55745.9
52654.2
49792.4
47209.9
44854
42713.2
40784.6
39059.8
37529.1
36181.7
35013.2
33997.6
33152.7
32443.6
31895.5
31474.9
31142.7
30895.1
30726
30615.2
30536.8
30506.2
30497.5
30487.8
30487.1
30486.7
30486
30485.8
30485.4
30485.1
30485.4
30485.8
30483.5
30471.1
30462.2
30455.8
30447.4
30434.1
30398.1
30340.4
30289.3
99999.9
99999.7
99998.7
99994.5
99979.1
99927.8
99773.2
99382.5
98518.8
96858.9
94116.5
90280.8
85668.6
80720.7
75834
71184.5
66859
62846.6
59165
55761.4
52667
49806.5
47219.9
44859.4
42720.4
40793
39068.4
37536.1
36185.3
35017
33996.5
33154
32447.6
31895.6
31473.4
31142.4
30888.7
30726.5
30613.7
30528.3
30505.8
30497.4
30487.2
30486.9
30486.5
30485.9
30485.6
30485.1
30484.8
30485.1
30485
30482.7
30470.9
30458.5
30450.8
30442.5
30431.5
30401
30335.6
30285.9
99999.9
99999.7
99998.7
99994.5
99979.1
99928.1
99774.1
99384.9
98524.3
96870
94135.4
90308.9
85705.9
80766.6
75885.9
71241.8
66917.8
62901.2
59223.5
55814.5
52722.8
49858.2
47273.9
44915.6
42772.2
40840.5
39112.5
37577.9
36227.1
35054
34033.9
33185.2
32470
31917.5
31492
31157.1
30905.2
30734.9
30625.3
30539.7
30508.6
30499.3
30487.9
30487.4
30486.8
30486.1
30485.5
30485
30484.6
30484.7
30484.1
30482
30470.9
30455.8
30446.8
30438.7
30428.4
30403.6
30335.2
30284.2
99999.9
99999.7
99998.7
99994.5
99979.2
99928.4
99774.9
99387
98529
96878.8
94149.3
90327.3
85726.6
80786.3
75903.6
71255.8
66930.8
62917.4
59235.6
55829.3
52735
49871.8
47283.5
44920.8
42779.1
40848.6
39120.7
37584.7
36230.7
35057.6
34033.3
33186.4
32473.9
31917.7
31491.3
31157.1
30899.4
30735.5
30619.4
30533.2
30508.1
30499.3
30487.4
30487.3
30486.8
30486.2
30485.3
30484.8
30484.3
30484.1
30483.1
30481.2
30470.9
30453.8
30443.1
30434.5
30423.4
30401.1
30338.4
30282.3
99999.9
99999.7
99998.7
99994.6
99979.3
99928.6
99775.8
99389.3
98534.2
96889.3
94167.2
90353.8
85761.6
80829.2
75952
71309.1
66985.4
62968.7
59290.1
55878.9
52787.1
49920.1
47333.6
44973.3
42827.5
40893
39162
37623.9
36269.7
35092.3
34068.4
33215.8
32494.9
31938.7
31508.1
31170.8
30915.4
30743.2
30631.4
30542.1
30510.5
30501
30488.1
30487.8
30487.1
30486.5
30485.2
30484.6
30484.1
30483.5
30482.4
30480.8
30471
30452.8
30440.6
30431.5
30419.8
30398.1
30343.6
30279.8
99999.9
99999.7
99998.7
99994.6
99979.4
99928.9
99776.5
99391.2
98538.4
96897.3
94179.9
90370.7
85780.8
80847.7
75968.8
71322.6
66998
62984.7
59301.8
55893
52798.7
49932.9
47342.8
44978.4
42834.2
40900.8
39169.8
37630.2
36273.3
35095.9
34068.1
33217
32498.7
31939.1
31507.6
31170.8
30909.7
30743.5
30624.6
30536.8
30509.9
30501
30487.7
30487.6
30487.2
30486.6
30485
30484.4
30483.8
30482.8
30481.8
30480.6
30471.2
30452.1
30438.7
30428.7
30416.4
30395.1
30348.1
30276.4
99999.9
99999.7
99998.7
99994.6
99979.4
99929.2
99777.3
99393.4
98543.4
96907.3
94196.9
90395.8
85813.8
80887.9
76013.9
71372.2
67048.9
63032.4
59352.6
55939.5
52847.3
49978
47389.5
45027.3
42879.3
40942.3
39208.5
37667
36309.7
35128.4
34100.9
33244.7
32518.3
31959
31523.1
31183.6
30925.5
30750.8
30633.4
30544.1
30511.9
30502.5
30488.4
30488.1
30487.5
30486.7
30484.9
30484.2
30483.4
30482.3
30481.7
30480.8
30471.5
30452
30437.8
30427
30414.9
30394.2
30352.5
30272.2
99999.9
99999.7
99998.7
99994.6
99979.5
99929.4
99778
99395.1
98547.2
96914.5
94208.5
90411.3
85831.4
80905.1
76029.8
71385.1
67060.9
63047.6
59363.8
55952.8
52858.4
49990.3
47398.5
45032.3
42885.9
40949.7
39215.9
37673.1
36313.3
35132
34100.9
33245.9
32521.9
31959.7
31522.8
31183.7
30919.6
30751
30628.3
30539.9
30511.4
30502.6
30488.1
30488
30487.6
30486.7
30484.8
30484
30482.9
30482.1
30481.7
30480.9
30471.6
30451.8
30437.5
30426
30413.5
30393.9
30356.2
30266.7
99999.9
99999.7
99998.7
99994.6
99979.6
99929.6
99778.8
99397.2
98551.9
96924.1
94224.7
90435.1
85862.6
80942.7
76071.9
71431.3
67108.3
63091.9
59411.1
55996.6
52903.8
50032.4
47442.1
45078.2
42927.9
40988.6
39252.2
37707.5
36347.4
35162.4
34131.5
33271.8
32540.3
31978.4
31537.2
31195.6
30934.6
30757.7
30636.8
30546.6
30513.1
30503.9
30488.8
30488.5
30487.9
30486.8
30484.9
30483.9
30482.5
30482.1
30481.9
30481
30471.4
30451.8
30437.7
30425.8
30413.5
30395.1
30359.4
30260.7
99999.9
99999.7
99998.7
99994.6
99979.6
99929.9
99779.4
99398.8
98555.4
96930.6
94235.2
90449.2
85878.8
80958.8
76086.9
71443.7
67119.9
63106.5
59421.9
56009.1
52914.4
50044
47450.6
45083.1
42934.3
40995.6
39259.2
37713.3
36350.9
35165.9
34131.6
33273.2
32543.8
31979.4
31537.1
31195.9
30928.7
30757.7
30632.2
30542.9
30512.6
30503.9
30488.6
30488.5
30488
30486.9
30484.9
30483.8
30482.2
30482.3
30482
30481
30470.6
30451.8
30438
30426
30413.7
30396.4
30361.1
30254
99999.9
99999.7
99998.7
99994.7
99979.7
99930.1
99780.2
99400.7
98560
96939.8
94250.7
90471.9
85908.3
80994.1
76126.3
71486.7
67164
63147.5
59466
56050.2
52956.7
50083.5
47491.4
45125.7
42973.5
41032
39293.2
37745.6
36382.7
35194.3
34160.1
33297.3
32561.1
31997
31550.4
31206.9
30942.4
30764
30640.2
30548.7
30514
30505
30489.2
30488.9
30488.2
30487.1
30484.9
30483.8
30482.1
30482.5
30482.1
30481.2
30469.1
30451.8
30438.4
30426.7
30414.8
30398.4
30362.3
30247.7
99999.9
99999.7
99998.7
99994.7
99979.8
99930.3
99780.7
99402.1
98563
96945.6
94260.1
90484.6
85923.1
81009.1
76140.4
71498.6
67175.1
63161.3
59476.3
56061.9
52966.9
50094.4
47499.5
45130.4
42979.7
41038.7
39299.8
37751.1
36386.2
35197.8
34160.3
33298.8
32564.4
31998.3
31550.6
31207.4
30937.5
30763.9
30635.9
30545.4
30513.6
30505.1
30489.1
30488.9
30488.4
30487.2
30485
30483.8
30482.1
30482.6
30482.2
30481.2
30467.6
30451.8
30438.7
30427.6
30415.9
30400.1
30362
30240.8
99999.9
99999.7
99998.7
99994.7
99979.8
99930.5
99781.5
99404.1
98567.5
96954.4
94275
90506.2
85951
81042.2
76177.2
71538.6
67216.2
63199.3
59517.5
56100.6
53006.3
50131.4
47537.8
45170.5
43016.4
41072.8
39331.6
37781.4
36415.9
35224.5
34186.6
33321.3
32580.7
32014.3
31563.3
31217.6
30949.1
30769.8
30644.7
30550.8
30514.9
30506.1
30489.7
30489.4
30488.7
30487.5
30485.2
30484
30482.3
30482.6
30482.3
30481.1
30466.6
30452
30439.1
30428.6
30417.6
30402.7
30362.1
30234.3
99999.9
99999.7
99998.7
99994.7
99979.9
99930.7
99781.9
99405.3
98570.2
96959.6
94283.4
90517.7
85964.5
81056.2
76190.4
71549.9
67226.9
63212.5
59527.3
56111.5
53016.1
50141.6
47545.4
45175.2
43022.3
41079.1
39337.9
37786.5
36419.4
35227.9
34187.2
33322.9
32583.8
32015.7
31563.8
31218.1
30945.1
30769.6
30640.2
30547.6
30514.6
30506.1
30489.7
30489.4
30488.7
30487.6
30485.3
30484.1
30482.4
30482.5
30482.3
30480.9
30465.9
30452.5
30439.5
30429.4
30419.1
30405
30360.7
30226.5
99999.9
99999.7
99998.7
99994.7
99979.9
99930.9
99782.6
99407.2
98574.5
96968.1
94297.7
90538.4
85991
81087.2
76224.8
71587.2
67265.1
63247.7
59565.7
56147.8
53052.8
50176.4
47581.4
45212.1
43056.7
41111.1
39367.8
37814.9
36447
35252.9
34211.7
33343.9
32599.3
32030.2
31576.1
31227.7
30954.1
30775
30647.9
30552.3
30515.7
30507
30490.4
30489.8
30489.1
30488
30485.7
30484.4
30482.6
30482.5
30482.4
30480.8
30465.9
30453.4
30440
30430.4
30420.8
30408.7
30360.9
30220.1
99999.9
99999.7
99998.7
99994.7
99980
99931.3
99783.8
99410.1
98580.9
96980.6
94318.1
90566.6
86024.8
81122.8
76259.2
71617.1
67293.2
63282.6
59591.4
56175.8
53078.7
50202.5
47601.1
45224.9
43072.3
41127.5
39383.9
37828.3
36456.6
35261.9
34214.1
33349.1
32606.9
32033.8
31578.4
31229.2
30942.6
30774.9
30639.1
30545.9
30515
30506.9
30490
30489.1
30488.3
30487.5
30485.4
30484
30482.4
30482
30482.2
30480.5
30466.2
30455.4
30441.4
30432.6
30424.5
30415.1
30354.6
30198.4
99999.9
99999.7
99998.7
99994.7
99980
99931
99782.7
99406.7
98572.6
96963.4
94288.2
90522.5
85969.3
81062.1
76199.7
71563.5
67243.6
63218.2
59547
56127.7
53033.6
50158.2
47568.6
45203.3
43046.2
41099.8
39356.7
37804.9
36439
35245.6
34207.3
33338.8
32592.1
32025.7
31574.5
31225.2
30951.1
30774.7
30648.3
30547
30515.1
30507.3
30490.7
30489
30489.2
30488.8
30487.4
30485.9
30485.5
30485.5
30485.6
30484.4
30470.3
30460.7
30447
30439.3
30434.9
30410
30315.7
30166.9
99999.9
99999.7
99998.7
99994.8
99980.1
99931.4
99783.9
99410
98580.4
96979.4
94316
90564
86023.2
81123.4
76261.7
71621.4
67297.3
63287.6
59595.7
56174.6
53084.3
50203
47602.3
45227.4
43074
41129.1
39385.3
37829.7
36460.6
35263.8
34218.8
33355.2
32606.6
32033.9
31581.9
31230.1
30950.9
30776.6
30648.9
30544.9
30515.5
30507.4
30490.1
30487.4
30487.4
30487.1
30486.3
30485.2
30485.3
30485.9
30488
30487.5
30474.9
30466.4
30452.8
30444.1
30436
30385.9
30300.5
30148.1
99999.9
99999.7
99998.7
99994.8
99980.1
99931.3
99783.4
99408
98574.7
96966.2
94291.2
90524
85968.5
81058.7
76195.2
71557.5
67238.4
63212.8
59543
56124.6
53029.3
50155.5
47566.5
45201.1
43044.6
41098.2
39355.2
37802.8
36437.3
35243
34204.8
33338.4
32590.4
32022.7
31574.7
31224.6
30942.1
30773.5
30646.5
30539.7
30512.8
30504.8
30487.7
30485.9
30486.1
30485.9
30485.6
30485.9
30486
30486.8
30490.4
30489.7
30480.5
30471.7
30459.8
30446.9
30414
30369
30286.3
30132.3
99999.9
99999.7
99998.7
99994.8
99980.2
99931.5
99784.2
99410.2
98580.2
96978.4
94313.9
90560.9
86020.5
81122.8
76263.6
71625.4
67301.6
63291.7
59600.7
56175.9
53090.1
50203.3
47603.2
45229.5
43075.7
41130.8
39386.5
37831.2
36464.3
35266
34225.8
33362.3
32609.6
32034.4
31587.1
31231.7
30954.3
30780.3
30649.8
30541.4
30516.1
30507.2
30488.9
30485.5
30485.6
30485.4
30484.7
30485.5
30486.3
30487.2
30489.3
30489.4
30484
30473.2
30460.8
30437.5
30410.3
30366.4
30279.9
30125.2
99999.9
99999.7
99998.7
99994.8
99980.2
99931.5
99784.1
99409.2
98576.7
96969
94294.5
90526.2
85968.5
81056
76191.1
71551.5
67232.8
63203.4
59537.6
56120.1
53025.5
50153.1
47564.9
45199.4
43043.1
41096.8
39353.6
37800.5
36435.7
35240.3
34203
33338.2
32588.7
32018.3
31574.1
31222.9
30936.8
30772.7
30648.8
30537.2
30513.2
30504.6
30486.8
30483.7
30484.1
30484
30483.9
30484.6
30485.9
30486.9
30487.9
30488
30483
30471.6
30456.6
30439.8
30416.3
30373.1
30291.2
30132
99999.9
99999.7
99998.7
99994.8
99980.2
99931.7
99784.6
99410.5
98580.3
96977.7
94312
90557.2
86016.5
81120.7
76264.3
71628.7
67305.8
63297.8
59606.5
56176.8
53095.6
50203.9
47603.9
45231.1
43076.9
41132.3
39387.8
37832.9
36467.3
35268.5
34231.2
33368
32613.4
32035.4
31593.5
31236.6
30956.4
30783.7
30654.6
30542.6
30520.2
30511
30493.4
30487.2
30487.4
30487.1
30486.4
30486.5
30486.6
30486.9
30486.8
30487.4
30481.9
30471.5
30459.3
30439.3
30415.5
30371
30287.5
30137.5
99999.9
99999.7
99998.7
99994.8
99980.3
99931.8
99784.7
99410.3
98578.7
96971.7
94297.9
90528.7
85969.4
81054.2
76187.5
71545.8
67227
63196.4
59531.7
56114.8
53021.6
50150.4
47562.9
45197.2
43041.3
41095.3
39352.1
37798.5
36434.1
35237.4
34200.2
33336.4
32585.9
32011.6
31572.3
31220.1
30935.4
30773
30648.4
30534.5
30514
30506
30492.2
30486.1
30486.3
30486.2
30486
30485.9
30485.9
30485.6
30485.2
30484.9
30478.6
30468.9
30458.1
30441
30417.4
30371.5
30281.4
30122.6
99999.9
99999.7
99998.7
99994.9
99980.3
99931.9
99785.1
99411.1
98580.9
96977.3
94310.4
90553.3
86011.3
81116.8
76263.5
71631.2
67309.8
63301.1
59612.5
56178.3
53100.1
50205.2
47605.2
45233.5
43079.1
41134.8
39389.8
37835.1
36470
35271.2
34235.8
33372.7
32617.9
32037.9
31600.6
31239.6
30957.8
30785.4
30658.4
30544.4
30523.1
30514.2
30501.8
30492.2
30492.3
30492
30491.4
30490.4
30490
30489.4
30488.8
30489.2
30483.6
30473.1
30462.5
30443.5
30418.4
30370.9
30277
30117.2
99999.9
99999.7
99998.7
99994.9
99980.4
99932
99785.4
99411.4
98580.6
96974.3
94301.3
90531.6
85970.9
81053.4
76184.8
71540.6
67221.3
63190.6
59525.3
56109.6
53018.2
50147.5
47560.9
45195.6
43040
41094.4
39350.6
37796.4
36431.8
35234.1
34196.9
33332.7
32583.4
32005.3
31568.6
31215.7
30931.5
30771.6
30645.1
30530.4
30509
30501.5
30495.6
30486
30486.1
30486
30486.1
30486
30486.3
30486.3
30486.1
30487.2
30481.1
30468.9
30452.8
30439.3
30414.9
30367.4
30273
30114.6
99999.9
99999.7
99998.8
99994.9
99980.4
99932.2
99785.7
99412
98582
96977.6
94309.5
90549.3
86005.1
81110.9
76260.9
71632.5
67313.3
63303.7
59618.8
56180.2
53103.2
50206.2
47606.6
45236
43081.6
41137.6
39392.4
37838.4
36473.6
35274.8
34240.2
33376.6
32621.7
32041.4
31605.6
31245.6
30963.1
30790.2
30660.3
30543.2
30518.2
30508.9
30502.5
30490.4
30490.3
30489.7
30488.5
30488.9
30489.1
30489
30488.9
30490.8
30484.7
30475.8
30454.4
30439.4
30413.9
30365.5
30278.2
30123
100000
99999.7
99998.8
99994.9
99980.5
99932.3
99786
99412.5
98582.5
96976.8
94304.7
90534.5
85972.8
81053.7
76183.1
71536
67215.9
63185.1
59518.3
56103.8
53015.3
50144.3
47558.5
45193.7
43038.5
41093.5
39349.1
37794.8
36430.2
35231.5
34193.7
33328.6
32580.7
32001.6
31566.2