/*--------------------------------*- C++ -*----------------------------------*\
| =========                 |                                                 |
| \\      /  F ield         | OpenFOAM: The Open Source CFD Toolbox           |
|  \\    /   O peration     | Version:  5.x                                   |
|   \\  /    A nd           | Web:      www.OpenFOAM.org                      |
|    \\/     M anipulation  |                                                 |
\*---------------------------------------------------------------------------*/
/*   Windows 32 and 64 bit porting by blueCAPE: http://www.bluecape.com.pt   *\
|  Based on Windows porting (2.0.x v4) by Symscape: http://www.symscape.com   |
\*---------------------------------------------------------------------------*/
FoamFile
{
    version     2.0;
    format      ascii;
    class       surfaceScalarField;
    location    "0.007";
    object      phi;
}
// * * * * * * * * * * * * * * * * * * * * * * * * * * * * * * * * * * * * * //

dimensions      [1 0 -1 0 0 0 0];

internalField   nonuniform List<scalar> 
19740
(
1.167e-005
-4.97492e-007
5.51484e-005
-2.57939e-006
0.000237186
-9.57522e-006
0.000930376
-3.22555e-005
0.00332763
-9.31094e-005
0.0108044
-0.000265464
0.030386
-0.000606324
0.0747771
-0.00117433
0.161192
-0.00182261
0.306655
-0.00269248
0.511252
-0.00323509
0.755339
-0.00301821
1.00888
-0.00245189
1.24821
-0.00188948
1.46257
-0.00157736
1.64947
-0.00126784
1.8108
-0.000839527
1.94785
-0.000931921
2.06554
0.000973891
2.16208
-0.00196464
2.2393
0.00176461
2.31397
0.000266064
2.36357
4.54253e-006
2.39541
0.000748326
2.43052
0.000989332
2.46628
0.0010464
2.48692
0.000623954
2.48822
-0.000149539
2.48041
3.26101e-005
2.47795
-0.00308925
2.48894
0.0030666
2.50279
0.000941407
2.50593
-0.000290186
2.49957
0.000282949
2.48844
0.00267278
2.4708
-0.00159279
2.45498
0.000742307
2.44849
0.000556294
2.45153
-0.00299377
2.47
0.00119408
2.49501
-0.00118933
2.5158
-0.00595069
2.53264
-0.00947675
2.54742
-0.0119955
2.56341
-0.0135615
2.57863
-0.0150398
2.59464
-0.0175991
2.59922
-0.0200581
2.55692
-0.0210703
2.41572
-0.0220945
2.2668
-0.0191305
2.1311
-0.0156862
2.01256
-0.0126741
1.91033
-0.0114995
1.82944
-0.00982754
1.76718
-0.0102011
1.71809
-0.00976159
1.6776
-0.010365
1.64218
-0.00808111
-0.00497115
1.11339e-005
-9.07009e-007
5.23672e-005
-4.65808e-006
0.000224333
-1.7056e-005
0.000877016
-5.6527e-005
0.00313033
-0.000160531
0.0101497
-0.000443133
0.0285338
-0.000981474
0.0702385
-0.00181751
0.151564
-0.00264919
0.288831
-0.00364268
0.482631
-0.00412999
0.714836
-0.00340349
0.957077
-0.0023527
1.18651
-0.00151017
1.39258
-0.00133101
1.5726
-0.00100361
1.72821
-0.000540991
1.86083
-0.000881636
1.97474
0.00242197
2.06855
-0.00340102
2.14429
0.0041236
2.21646
0.000893542
2.26403
-0.000470367
2.29714
0.00121871
2.33424
0.00224444
2.3688
0.00261142
2.38633
0.00121936
2.38699
-0.000805189
2.38239
-0.000312403
2.38603
-0.00528987
2.40015
0.00661678
2.41272
0.00230766
2.41393
-0.000903225
2.40747
-0.000163558
2.39652
0.00312651
2.38148
-0.0056729
2.36964
0.000540769
2.36699
0.000258422
2.3767
-0.00700291
2.39801
0.00274682
2.41656
-0.0034862
2.42889
-0.00952701
2.43788
-0.0149166
2.44639
-0.0194353
2.45659
-0.0231418
2.46697
-0.0256664
2.47351
-0.0275448
2.46362
-0.0309408
2.4008
-0.0350322
2.24652
-0.0347793
2.08904
-0.0277139
1.94685
-0.0217416
1.82823
-0.0171336
1.73278
-0.0143699
1.66068
-0.0104644
1.60691
-0.00940834
1.56928
-0.00885089
1.54367
-0.00796573
1.52789
-0.00426007
-0.00391128
1.07563e-005
-1.31195e-006
5.06055e-005
-6.74629e-006
0.000216947
-2.4802e-005
0.000848978
-8.26916e-005
0.00303372
-0.000237423
0.00984829
-0.000657968
0.0277305
-0.0014892
0.0683496
-0.00280268
0.147641
-0.00420676
0.281616
-0.00595348
0.47088
-0.00694239
0.697694
-0.00606817
0.934255
-0.00449414
1.15824
-0.00319958
1.35927
-0.00275256
1.53481
-0.002107
1.68642
-0.00135958
1.81582
-0.00153079
1.92569
0.00253848
2.01804
-0.00367094
2.09235
0.00432333
2.15688
0.00121239
2.20976
-0.000188516
2.24423
0.0016367
2.27098
0.00283306
2.29997
0.00317508
2.32429
0.0018241
2.33325
-0.000475565
2.32831
7.0151e-005
2.32133
-0.00503284
2.32396
0.00532267
2.33587
0.00499764
2.3439
-0.00121108
2.34153
3.45685e-005
2.33508
0.00421972
2.32368
-0.0039316
2.30771
-0.000488061
2.29685
0.000557088
2.29314
-0.00631853
2.2948
0.00104311
2.30621
-0.00200075
2.31994
-0.0087319
2.32912
-0.0152153
2.33527
-0.0206191
2.34075
-0.0250884
2.3449
-0.0287716
2.35025
-0.0312723
2.34864
-0.0358174
2.30403
-0.0385791
2.16084
-0.0396082
2.01472
-0.0343236
1.88741
-0.027533
1.78016
-0.0220043
1.69382
-0.0177349
1.62379
-0.0140187
1.57192
-0.0121703
1.53448
-0.00997365
1.50689
-0.00518535
1.48493
-0.000542258
0.000462687
1.02885e-005
-1.65343e-006
4.82192e-005
-8.46854e-006
0.000206029
-3.09965e-005
0.000803853
-0.000102828
0.00286692
-0.000294707
0.00929341
-0.00080219
0.0261513
-0.00181722
0.0644518
-0.00335728
0.139311
-0.00494615
0.266066
-0.00686265
0.445691
-0.00783565
0.661769
-0.00657645
0.888007
-0.00462004
1.10286
-0.00296965
1.29619
-0.00259246
1.4653
-0.00190728
1.61151
-0.00126107
1.73681
-0.000903601
1.84261
0.00228997
1.9332
-0.00205679
2.00681
0.00367802
2.06349
0.00244325
2.11998
0.000583044
2.16037
0.00179476
2.18141
0.00317233
2.20121
0.00374839
2.22689
0.00264455
2.24714
0.000372047
2.25182
0.000953999
2.24408
-0.00359902
2.23472
0.00554875
2.23609
0.00323035
2.24743
0.00163618
2.25508
0.000890919
2.25469
0.00378788
2.25117
-0.00393468
2.24176
0.00019409
2.23054
-0.000597547
2.2235
-0.00574848
2.22094
0.00080554
2.22189
-0.00279866
2.22743
-0.00911601
2.23621
-0.0146881
2.24126
-0.0196907
2.24369
-0.0242126
2.24509
-0.0282504
2.2452
-0.0300851
2.23121
-0.0334486
2.16041
-0.036128
1.99253
-0.0381246
1.84463
-0.034696
1.72586
-0.0288467
1.63184
-0.0227402
1.55916
-0.0178163
1.50262
-0.0147989
1.46162
-0.011457
1.43297
-0.00688696
1.41284
0.00122804
1.39306
0.00355308
0.00692169
9.91759e-006
-1.98257e-006
4.64783e-005
-1.01552e-005
0.00019869
-3.72436e-005
0.00077587
-0.00012395
0.00277022
-0.00035791
0.00899113
-0.000972158
0.0253462
-0.00224404
0.0625638
-0.00417836
0.135403
-0.0062636
0.258914
-0.00885951
0.434122
-0.0102974
0.644978
-0.0089573
0.865712
-0.00654028
1.07533
-0.00449207
1.26382
-0.0038568
1.42863
-0.00285867
1.5711
-0.00207414
1.69309
-0.0013245
1.79592
0.00152927
1.88384
-0.00103336
1.95551
0.00251108
2.01096
0.00296225
2.06516
0.00151201
2.1038
0.00237569
2.12432
0.00334434
2.14357
0.00433554
2.16805
0.00273244
2.18701
0.00143442
2.19092
0.00222689
2.18314
-0.00307704
2.17316
0.00709987
2.17318
0.000995189
2.18386
0.00341066
2.19005
0.00202847
2.18881
0.00434794
2.18428
-0.00295934
2.17411
0.00259095
2.16209
-0.00127391
2.15375
-0.00495915
2.14942
0.00179538
2.14871
-0.00169769
2.15277
-0.00818406
2.16148
-0.0134108
2.16665
-0.0182959
2.1691
-0.0227195
2.16923
-0.0259315
2.16691
-0.0264771
2.15134
-0.0293005
2.08256
-0.0328491
1.92021
-0.0350259
1.7782
-0.0347068
1.66608
-0.0305086
1.57848
-0.0247174
1.51018
-0.0185144
1.4578
-0.0146417
1.41958
-0.0103153
1.39064
-0.00454319
1.37091
0.0019075
1.35363
0.00485371
0.0121005
9.50309e-006
-2.2655e-006
4.43999e-005
-1.15747e-005
0.00018929
-4.23529e-005
0.000737283
-0.000140602
0.0026279
-0.000406311
0.0085175
-0.00108837
0.0239932
-0.00253328
0.0592046
-0.00466121
0.128176
-0.00694782
0.245313
-0.0097014
0.411888
-0.0111752
0.612995
-0.00952631
0.824283
-0.00681054
1.02547
-0.0043805
1.20682
-0.00378214
1.36564
-0.00272114
1.50309
-0.00201578
1.62088
-0.000674432
1.7207
0.00125306
1.80601
0.000233648
1.87499
0.00203532
1.92985
0.00425698
1.98322
0.00194179
2.01949
0.00239044
2.04005
0.0037218
2.0618
0.00462824
2.0872
0.00397181
2.10413
0.00217346
2.10578
0.00321958
2.09834
-0.00152741
2.09142
0.00659081
2.09768
0.00112511
2.10958
0.00551834
2.11452
0.00239452
2.1125
0.00446934
2.10802
-0.00213365
2.09614
0.00252157
2.0849
-0.00184466
2.07974
-0.00380498
2.07817
0.00111467
2.08183
-0.00220199
2.09143
-0.00740859
2.09813
-0.0118483
2.10147
-0.0163968
2.10298
-0.0211696
2.10345
-0.0247369
2.10249
-0.025607
2.08778
-0.0267545
2.02363
-0.0302651
1.86582
-0.032212
1.72068
-0.0321006
1.60384
-0.0292803
1.51332
-0.0244651
1.44492
-0.0185759
1.39466
-0.0124908
1.35636
-0.00667485
1.32903
-0.00164562
1.30839
0.00196301
1.29027
0.00922135
0.0160829
9.1483e-006
-2.53257e-006
4.27273e-005
-1.29339e-005
0.000182205
-4.73785e-005
0.000710129
-0.000157599
0.00253365
-0.000458012
0.00822157
-0.00122232
0.0232028
-0.00289203
0.0573492
-0.00534244
0.124337
-0.00807413
0.2383
-0.0114153
0.400591
-0.0133279
0.596689
-0.0116695
0.802696
-0.00856661
0.998843
-0.00570685
1.17556
-0.00489254
1.33024
-0.00353637
1.46413
-0.00274794
1.57884
-0.00117244
1.67577
0.000597433
1.75859
0.00107987
1.82603
0.000906062
1.8792
0.00454665
1.93041
0.00255437
1.96581
0.00271713
1.98568
0.004431
2.00602
0.00441459
2.0302
0.00527456
2.04691
0.00300172
2.04888
0.00426665
2.04099
-0.000671643
2.03335
0.0078615
2.03692
0.00142385
2.04842
0.00720591
2.05276
0.00398237
2.05019
0.00480056
2.04513
-0.000779455
2.03368
0.00404407
2.0216
-0.000983391
2.01491
-0.00297277
2.01184
0.00201498
2.01327
-0.00104326
2.02352
-0.00650744
2.0326
-0.0111464
2.0384
-0.0158124
2.04144
-0.0205601
2.04244
-0.0242636
2.04285
-0.0256186
2.03464
-0.0263369
1.98945
-0.0292822
1.85031
-0.0306129
1.71005
-0.0311497
1.59549
-0.0300616
1.5043
-0.026196
1.43431
-0.0201174
1.38286
-0.0128716
1.34607
-0.00657428
1.32139
-0.000822059
1.29197
0.00470404
1.27043
0.0139745
0.0200261
8.7765e-006
-2.76531e-006
4.08915e-005
-1.4096e-005
0.000173997
-5.15684e-005
0.000676712
-0.000171305
0.00241084
-0.000498605
0.00781345
-0.00131711
0.0220348
-0.00314549
0.0544378
-0.00576294
0.118038
-0.00870769
0.226365
-0.0121863
0.380918
-0.0141767
0.568146
-0.0122761
0.765469
-0.0089222
0.953841
-0.00574144
1.12393
-0.00492027
1.27306
-0.00348018
1.40222
-0.00272935
1.51297
-0.000611323
1.60702
0.000379165
1.68735
0.00217921
1.75237
0.000414912
1.80445
0.00582458
1.8549
0.00278432
1.88893
0.0026849
1.90881
0.00439499
1.93023
0.00571953
1.95445
0.00547874
1.96991
0.00402648
1.97105
0.0042644
1.96453
0.000485043
1.95868
0.00757233
1.96572
0.00374071
1.97675
0.00731149
1.98094
0.00429662
1.97861
0.00523441
1.97409
7.24823e-005
1.96209
0.00318681
1.95129
-0.00131271
1.94673
-0.00199778
1.94552
0.00146255
1.95096
-0.00120258
1.96297
-0.00614225
1.97106
-0.0102588
1.97544
-0.0147105
1.97774
-0.0198458
1.98002
-0.0245135
1.98127
-0.027114
1.9735
-0.0271023
1.9283
-0.0295432
1.79281
-0.0315626
1.65576
-0.0309103
1.54132
-0.0299223
1.44973
-0.0265274
1.38
-0.0205473
1.32989
-0.0135317
1.29369
-0.00556346
1.26948
0.00325287
1.24923
0.0123859
1.22369
0.019101
0.0246565
8.44277e-006
-2.9814e-006
3.93146e-005
-1.51878e-005
0.00016729
-5.55986e-005
0.000650892
-0.000184942
0.00232078
-0.000540696
0.00752916
-0.00142338
0.021272
-0.00344602
0.0526411
-0.00632738
0.114315
-0.00967237
0.219559
-0.0136519
0.369969
-0.0160595
0.552396
-0.0142017
0.744692
-0.0105397
0.92824
-0.00697496
1.09389
-0.00591115
1.23904
-0.00418567
1.36483
-0.00339943
1.47265
-0.000977666
1.56394
-0.000247983
1.64192
0.00293218
1.70553
-0.000687493
1.75609
0.00556702
1.80443
0.00335106
1.83747
0.0030821
1.85672
0.00519516
1.87702
0.00608985
1.90031
0.00622213
1.91552
0.00538883
1.91681
0.00513388
1.90942
0.00150674
1.9034
0.00725689
1.90853
0.00519439
1.9196
0.00787788
1.92327
0.00600137
1.92036
0.00557321
1.91531
0.00133916
1.90357
0.00405894
1.89166
0.000199381
1.88564
-0.00164275
1.88317
0.00233009
1.8861
8.19002e-005
1.89868
-0.00529249
1.90893
-0.00994973
1.91556
-0.0148617
1.91997
-0.0199898
1.92183
-0.0247251
1.92304
-0.0286185
1.91803
-0.0291229
1.8814
-0.0308767
1.7611
-0.0316389
1.62692
-0.0317096
1.51614
-0.0307842
1.42712
-0.0273367
1.35867
-0.0213324
1.30819
-0.0144692
1.27238
-0.00549819
1.24661
0.006513
1.22567
0.0160551
1.20173
0.0214019
0.0272211
8.10633e-006
-3.17135e-006
3.76748e-005
-1.61318e-005
0.000160036
-5.90097e-005
0.000621605
-0.000196153
0.00221363
-0.000574481
0.00717393
-0.00150158
0.0202556
-0.00366565
0.0501011
-0.00669175
0.108796
-0.0102516
0.209042
-0.0143574
0.352511
-0.0168817
0.526868
-0.0148348
0.711162
-0.0109463
0.887512
-0.00707432
1.04702
-0.00600467
1.18702
-0.00417801
1.30838
-0.00339656
1.41249
-0.000569339
1.50103
-0.000571359
1.57666
0.00396629
1.63803
-0.00119267
1.68714
0.0074936
1.7349
0.00370957
1.76717
0.00305019
1.78617
0.00498013
1.80665
0.00669597
1.82969
0.00695993
1.84443
0.00610309
1.8457
0.00502897
1.83983
0.00174815
1.83456
0.00660419
1.84103
0.00792864
1.85152
0.00807803
1.85558
0.00644435
1.85325
0.00576017
1.84904
0.00241897
1.83755
0.00303407
1.82681
0.000118091
1.82216
2.15486e-005
1.82082
0.00215235
1.82678
-0.000540823
1.83984
-0.00499302
1.84851
-0.00912725
1.85333
-0.0139796
1.85624
-0.0196752
1.85818
-0.025246
1.85914
-0.0297424
1.85397
-0.0309401
1.81633
-0.0318023
1.69668
-0.0338005
1.56678
-0.0314654
1.45793
-0.0296485
1.37021
-0.0261066
1.30185
-0.0204597
1.25219
-0.0129881
1.21616
-0.00270703
1.18853
0.00881039
1.1695
0.0150593
1.15312
0.0200457
0.0293946
7.79566e-006
-3.34541e-006
3.62059e-005
-1.70045e-005
0.000153772
-6.22273e-005
0.000597396
-0.000207052
0.0021288
-0.000608585
0.00690471
-0.00158641
0.0195292
-0.00391546
0.0483821
-0.00715858
0.105223
-0.0110767
0.202494
-0.0156055
0.341971
-0.0185353
0.51173
-0.0165645
0.691247
-0.0124357
0.863012
-0.00821127
1.01827
-0.00689092
1.15445
-0.00478312
1.27258
-0.00396149
1.37391
-0.000731931
1.45984
-0.00116209
1.53327
0.0046781
1.59336
-0.00238848
1.64095
0.00823112
1.68676
0.00428035
1.71824
0.00342873
1.73653
0.00457641
1.75569
0.0070678
1.77787
0.00748035
1.79276
0.00677108
1.79448
0.0054419
1.7878
0.00349783
1.78194
0.00587258
1.78677
0.00910966
1.79727
0.00878744
1.80136
0.00754868
1.79878
0.00602812
1.79433
0.00376001
1.78325
0.00384751
1.77172
0.00102389
1.76595
0.000935083
1.76347
0.00328081
1.7661
0.000883245
1.77927
-0.00467265
1.78983
-0.00924816
1.79653
-0.0144082
1.8009
-0.0201548
1.80315
-0.0261262
1.80465
-0.0311339
1.79982
-0.0319143
1.76627
-0.0325354
1.65725
-0.0335701
1.52932
-0.031763
1.42541
-0.0298513
1.3419
-0.0261022
1.2766
-0.0206437
1.22896
-0.0129798
1.19187
-0.00215517
1.16578
0.0074343
1.14786
0.0137181
1.12792
0.0200617
0.0301576
7.48946e-006
-3.4991e-006
3.47291e-005
-1.77642e-005
0.000147297
-6.49802e-005
0.000571462
-0.000216151
0.00203435
-0.000636475
0.00659256
-0.00165108
0.0186371
-0.00410271
0.0461509
-0.00747281
0.10036
-0.0116007
0.193186
-0.0162486
0.326426
-0.0193268
0.488845
-0.0172167
0.660988
-0.0129039
0.826075
-0.00835436
0.975634
-0.00703498
1.10704
-0.00481797
1.22104
-0.00401267
1.31891
-0.000316748
1.40219
-0.00152009
1.47336
0.00597289
1.53137
-0.00298743
1.57744
0.00929661
1.62267
0.00465228
1.65358
0.00327268
1.67156
0.00548145
1.6906
0.00763453
1.71245
0.00811256
1.72699
0.00716308
1.72891
0.00536023
1.72358
0.00299803
1.71833
0.00507323
1.72349
0.0102257
1.73366
0.00968874
1.73806
0.00803365
1.73614
0.00573669
1.73239
0.00450802
1.72189
0.00326702
1.71137
0.000800257
1.70648
0.00149892
1.70497
0.0029618
1.71051
-0.000266443
1.72344
-0.00433068
1.73278
-0.00851781
1.73825
-0.0136911
1.74145
-0.0200372
1.74399
-0.0266351
1.74501
-0.0317226
1.74099
-0.0330044
1.7087
-0.0334668
1.60412
-0.0354926
1.47747
-0.0318211
1.37458
-0.0290572
1.29242
-0.0254967
1.22904
-0.0201574
1.18279
-0.0123555
1.14621
-0.002675
1.12238
0.00533529
1.10551
0.0142979
1.08763
0.0240047
0.0310128
7.20203e-006
-3.63839e-006
3.33709e-005
-1.84569e-005
0.000141496
-6.75329e-005
0.000548979
-0.000224816
0.00195525
-0.000663955
0.0063403
-0.00171892
0.0179525
-0.00430736
0.0445218
-0.00785973
0.0969601
-0.0123048
0.186934
-0.0173104
0.316341
-0.0207796
0.474357
-0.0187694
0.641959
-0.0142808
0.802697
-0.00937951
0.948203
-0.00784012
1.07596
-0.00536831
1.18687
-0.00453839
1.28208
-0.000384828
1.36293
-0.00220542
1.43205
0.00760639
1.48884
-0.00411018
1.53347
0.00994125
1.57682
0.00578655
1.60705
0.00351643
1.62438
0.00635069
1.64208
0.00782951
1.66304
0.00838686
1.67785
0.00756607
1.68034
0.00560955
1.6744
0.00407496
1.66831
0.00407486
1.67214
0.0102101
1.68209
0.0103594
1.68687
0.00860802
1.68488
0.0057713
1.6812
0.00536604
1.6712
0.00408268
1.6602
0.0011289
1.65435
0.0026027
1.65164
0.00391697
1.65358
0.000801251
1.66681
-0.00448696
1.67831
-0.00897434
1.68593
-0.0142538
1.69061
-0.0203949
1.69325
-0.0267085
1.69493
-0.0324346
1.69396
-0.0345902
1.67203
-0.0350388
1.58616
-0.0359794
1.45969
-0.0333035
1.35708
-0.0305596
1.27574
-0.0269477
1.2124
-0.0209112
1.16541
-0.0123377
1.12631
-0.00284667
1.10082
0.0048956
1.08337
0.016231
1.06493
0.0284766
0.0379167
6.92235e-006
-3.76149e-006
3.20332e-005
-1.90616e-005
0.000135675
-6.97312e-005
0.000525821
-0.000232132
0.00187128
-0.000686758
0.00606365
-0.00177215
0.0171634
-0.00446351
0.0425484
-0.00813114
0.0926508
-0.0127749
0.178657
-0.0178997
0.302452
-0.0215269
0.45379
-0.0194306
0.614604
-0.0147906
0.769142
-0.00959216
0.909349
-0.00801732
1.03267
-0.00541755
1.13974
-0.0046376
1.2317
6.74332e-006
1.31004
-0.00260997
1.37696
0.00777265
1.43179
-0.00492879
1.475
0.0109535
1.51774
0.0053216
1.54738
0.00318431
1.56439
0.00568202
1.582
0.00832109
1.60262
0.00899332
1.61698
0.00798889
1.61955
0.00525972
1.61475
0.00378231
1.60945
0.00338205
1.6133
0.0102436
1.62304
0.0114789
1.62789
0.0091095
1.62648
0.00569699
1.62319
0.00606435
1.61392
0.00391716
1.60373
-0.0002203
1.59853
0.00217563
1.59683
0.00323021
1.60148
-0.000586806
1.61443
-0.00465045
1.62488
-0.00861214
1.6315
-0.0140191
1.63542
-0.0205724
1.63813
-0.0276928
1.64076
-0.0333959
1.63967
-0.0362555
1.62187
-0.0378413
1.54787
-0.0398645
1.42453
-0.0352355
1.32142
-0.0312129
1.23906
-0.0272362
1.17424
-0.0205594
1.12654
-0.0117549
1.08767
-0.0019983
1.06156
0.00749963
1.04338
0.0196231
1.02575
0.0340577
0.0437309
6.65735e-006
-3.87196e-006
3.07828e-005
-1.9606e-005
0.000130331
-7.17386e-005
0.000505069
-0.000238969
0.00179803
-0.000708737
0.00582906
-0.00182632
0.016523
-0.00462844
0.0410162
-0.00845273
0.0894387
-0.0133754
0.172724
-0.0188071
0.292852
-0.0227964
0.439979
-0.020823
0.596471
-0.0160587
0.746885
-0.0105285
0.883246
-0.00875184
1.00308
-0.00590311
1.1072
-0.00520118
1.19662
-5.83558e-005
1.27267
-0.0032803
1.3377
0.00739357
1.3913
-0.00617384
1.43325
0.0115753
1.47419
0.00513254
1.50302
0.00331727
1.51949
0.00496941
1.53608
0.00846841
1.55589
0.0092734
1.57027
0.00840712
1.57314
0.00527892
1.56788
0.00419635
1.56189
0.00217101
1.56507
0.00903081
1.57455
0.0120412
1.57964
0.00938262
1.5781
0.00533873
1.57497
0.0063533
1.56595
0.00438102
1.55567
5.12692e-006
1.54992
0.00280103
1.54732
0.00373629
1.54916
-0.000229814
1.56235
-0.00564758
1.57443
-0.00972475
1.58261
-0.0151486
1.58775
-0.0221813
1.59191
-0.0291315
1.59427
-0.0345388
1.59526
-0.0389476
1.58525
-0.0424077
1.52853
-0.0432464
1.41112
-0.0380644
1.30854
-0.0336513
1.22594
-0.0285675
1.16016
-0.021021
1.11113
-0.0114341
1.07002
-0.000446878
1.04257
0.0108129
1.02134
0.0232034
1.00343
0.0391405
0.0510923
6.40132e-006
-3.96936e-006
2.95662e-005
-2.00807e-005
0.000125068
-7.34713e-005
0.000484251
-0.000244781
0.00172284
-0.000727165
0.00558207
-0.00186986
0.0158201
-0.00475675
0.0392596
-0.00868655
0.0855984
-0.0137951
0.16533
-0.0193472
0.280397
-0.0234973
0.421448
-0.021486
0.571695
-0.0165852
0.716357
-0.0107933
0.847779
-0.00893617
0.963484
-0.00598503
1.06402
-0.00531254
1.15042
0.000109368
1.2241
-0.00376458
1.287
0.00995342
1.33875
-0.0070195
1.3794
0.0125843
1.41975
0.00607332
1.44787
0.00305052
1.46404
0.00585827
1.48065
0.00893678
1.50014
0.00989697
1.51391
0.00892133
1.51667
0.00504168
1.51232
0.00390464
1.50737
0.00139981
1.51071
0.00863002
1.51999
0.0131163
1.52482
0.00984387
1.52365
0.00478035
1.52057
0.0066619
1.51222
0.00415093
1.50259
-0.00188699
1.49752
0.00215832
1.49605
0.00282707
1.50051
-0.0018988
1.51326
-0.00618471
1.52413
-0.0100489
1.53151
-0.0158341
1.5362
-0.0235344
1.53995
-0.0314281
1.54394
-0.0373363
1.54577
-0.0419791
1.53754
-0.0464383
1.49017
-0.0480327
1.37884
-0.0422065
1.27684
-0.0361877
1.19334
-0.0290702
1.12667
-0.020761
1.07731
-0.0106302
1.03787
0.000611362
1.01104
0.0133347
0.990038
0.0262918
0.973844
0.0419124
0.0596927
6.15743e-006
-4.05591e-006
2.84177e-005
-2.05027e-005
0.00012016
-7.50305e-005
0.000465172
-0.00025012
0.00165531
-0.000744578
0.00536508
-0.00191306
0.0152243
-0.00488928
0.0378268
-0.00895273
0.0825806
-0.0143071
0.15973
-0.0201233
0.271299
-0.0246075
0.408327
-0.0227362
0.55446
-0.0177442
0.695209
-0.0116568
0.822993
-0.00960261
0.935388
-0.00642041
1.0331
-0.00582232
1.11707
6.24497e-006
1.1886
-0.00446341
1.24974
0.010813
1.30025
-0.0082805
1.33977
0.0132852
1.37842
0.00756423
1.40566
0.00327928
1.42133
0.00675512
1.43717
0.00903975
1.45599
0.0102063
1.46961
0.00938
1.47241
0.00508535
1.46771
0.00407573
1.46219
0.00036996
1.46531
0.00734373
1.47439
0.0135851
1.47933
0.0101138
1.47797
0.00471641
1.47509
0.00688621
1.46674
0.00446291
1.45724
-0.00199918
1.45186
0.00254938
1.44968
0.00345228
1.45218
-0.00202409
1.46516
-0.00706544
1.47681
-0.0111471
1.48499
-0.0174647
1.49114
-0.0256957
1.49471
-0.0344004
1.49919
-0.0414786
1.50406
-0.0468009
1.5007
-0.0514008
1.46397
-0.0515882
1.36171
-0.0465349
1.2616
-0.0394896
1.17815
-0.0304939
1.1105
-0.0210536
1.05914
-0.0101094
1.01816
0.00192291
0.99022
0.0159458
0.968353
0.0307254
0.950515
0.0458679
0.0634916
5.92268e-006
-4.13179e-006
2.73081e-005
-2.08688e-005
0.000115382
-7.63736e-005
0.000446361
-0.00025467
0.00158759
-0.000759271
0.00514322
-0.00194851
0.0145942
-0.00499483
0.0362538
-0.00915196
0.0791402
-0.0146798
0.153094
-0.0206137
0.26009
-0.0252695
0.391585
-0.0233972
0.531976
-0.0182817
0.667395
-0.0119497
0.790572
-0.00979816
0.89911
-0.00650426
0.993503
-0.00596339
1.07465
4.17086e-005
1.14395
-0.00495297
1.20304
0.0121444
1.25185
-0.00920585
1.29013
0.0143239
1.32817
0.00694692
1.35472
0.003047
1.37009
0.00590869
1.38591
0.00948422
1.40437
0.0108386
1.41739
0.00990705
1.42013
0.00494889
1.41615
0.00374712
1.41169
-0.000350147
1.41493
0.00682459
1.42372
0.0147602
1.42836
0.0107621
1.42734
0.00300609
1.4243
0.00674174
1.41663
0.00442628
1.40755
-0.00361856
1.40273
0.001646
1.40148
0.0028247
1.4057
-0.0036095
1.41867
-0.00808466
1.42976
-0.0120536
1.43753
-0.0188432
1.44292
-0.0277972
1.44669
-0.0373579
1.45112
-0.0457193
1.45667
-0.0523797
1.45326
-0.0555595
1.42162
-0.0564102
1.32644
-0.0521843
1.22846
-0.0420222
1.14494
-0.0313825
1.07706
-0.020985
1.02597
-0.00985782
0.986069
0.00239423
0.95749
0.0192561
0.937987
0.034656
0.920731
0.050073
0.0641282
5.69841e-006
-4.19849e-006
2.62543e-005
-2.11897e-005
0.000110882
-7.7564e-005
0.000428857
-0.000258779
0.00152552
-0.000772902
0.00494322
-0.00198295
0.0140424
-0.00510163
0.0349199
-0.0093708
0.0763172
-0.0151159
0.147831
-0.0212761
0.251501
-0.0262463
0.379159
-0.0245223
0.515631
-0.0193392
0.647334
-0.0127445
0.76707
-0.0104052
0.872479
-0.00687834
0.964164
-0.00631047
1.04301
2.76182e-005
1.11025
-0.00565578
1.1677
0.0129808
1.21528
-0.0104098
1.25252
0.0150519
1.28899
0.00636161
1.31465
0.00322854
1.32955
0.00502666
1.34474
0.00960147
1.36262
0.0111901
1.37544
0.0104042
1.37809
0.00515011
1.37388
0.00407595
1.36888
-0.00115583
1.37206
0.00579878
1.38071
0.0155156
1.38536
0.0112197
1.38412
0.0032391
1.38139
0.00689913
1.37362
0.00437548
1.3648
-0.00432496
1.35974
0.00189728
1.35797
0.00274635
1.36046
-0.00373266
1.37324
-0.00897933
1.38482
-0.0134899
1.39304
-0.020913
1.39901
-0.0305981
1.40343
-0.0406084
1.40758
-0.0497476
1.41239
-0.0569967
1.41147
-0.0607899
1.3863
-0.062574
1.29975
-0.0596458
1.20327
-0.0438202
1.12114
-0.0325973
1.05495
-0.0219364
1.00397
-0.0108227
0.96365
0.00286048
0.936423
0.0198371
0.918834
0.0366614
0.901396
0.0552924
0.0652635
5.48294e-006
-4.25643e-006
2.52403e-005
-2.14653e-005
0.000106531
-7.85824e-005
0.000411792
-0.000262271
0.00146425
-0.000784429
0.00474292
-0.00201165
0.0134745
-0.00518811
0.0335039
-0.00953927
0.0732202
-0.015445
0.14185
-0.0217193
0.241378
-0.0268718
0.363992
-0.0251768
0.495189
-0.0198883
0.621956
-0.0130646
0.737398
-0.0106208
0.839202
-0.00697478
0.927803
-0.006484
1.004
0.000389607
1.06917
-0.00611603
1.12468
0.0138346
1.17068
-0.0113993
1.20673
0.0160628
1.24257
0.00772461
1.26754
0.00289328
1.28218
0.00599138
1.29734
0.010049
1.31482
0.0118125
1.32701
0.0109398
1.32962
0.00508848
1.32596
0.00400354
1.32203
-0.00185387
1.32536
0.00525646
1.33365
0.0169566
1.33801
0.0117816
1.33712
0.00168622
1.33399
0.00729455
1.32686
0.00527938
1.31835
-0.00564789
1.31373
0.000252201
1.3127
0.00165143
1.31689
-0.00543899
1.32942
-0.0099664
1.34
-0.0144693
1.34734
-0.0224626
1.3523
-0.0326556
1.35626
-0.0434925
1.36025
-0.0534535
1.36444
-0.0607752
1.36359
-0.0657501
1.34129
-0.0689204
1.26302
-0.0673539
1.16621
-0.0465873
1.08478
-0.0341871
1.01952
-0.0232308
0.969331
-0.0122865
0.931283
0.00229508
0.905162
0.0196587
0.889021
0.0375846
0.872271
0.0579162
0.0665303
5.27672e-006
-4.30665e-006
2.42736e-005
-2.17028e-005
0.000102407
-7.94692e-005
0.000395752
-0.000265369
0.00140728
-0.000794931
0.004559
-0.00203898
0.0129647
-0.00527359
0.0322659
-0.00971883
0.0705884
-0.0158159
0.13692
-0.0222861
0.233294
-0.027732
0.352255
-0.0261906
0.479719
-0.0208553
0.602955
-0.0137969
0.71514
-0.0111787
0.813986
-0.00730122
0.900007
-0.00677029
0.974023
0.000483352
1.03722
-0.00674171
1.09116
0.014475
1.13597
-0.0125546
1.1711
0.0168066
1.20549
0.00857564
1.22956
0.0027928
1.24375
0.00696354
1.25839
0.0102383
1.27537
0.0122171
1.28732
0.0114727
1.28974
0.00533253
1.28591
0.00433108
1.28154
-0.00202505
1.28493
0.00477358
1.29312
0.0179696
1.29736
0.0123164
1.29615
0.00185995
1.29349
0.00767597
1.28618
0.00452023
1.27793
-0.00721289
1.27308
0.000787107
1.2715
0.00127796
1.27465
-0.00618723
1.28647
-0.0104194
1.29689
-0.0153805
1.30438
-0.0241226
1.30988
-0.0351331
1.31366
-0.0462182
1.31709
-0.056174
1.32127
-0.0641377
1.3215
-0.0697272
1.3045
-0.0734681
1.23904
-0.0729068
1.14294
-0.0534139
1.06269
-0.0390761
0.997541
-0.0266083
0.946035
-0.013678
0.907687
0.00228474
0.880621
0.0190953
0.863147
0.0385199
0.846379
0.056314
0.0686462
5.07878e-006
-4.34967e-006
2.33453e-005
-2.19033e-005
9.84364e-005
-8.02179e-005
0.000380221
-0.000267981
0.00135164
-0.000803789
0.00437743
-0.002062
0.0124505
-0.00534365
0.0309854
-0.00986052
0.0677884
-0.016105
0.131509
-0.0226875
0.224122
-0.0283177
0.338481
-0.026832
0.461098
-0.0214131
0.579767
-0.0141474
0.687954
-0.0114124
0.783431
-0.00741596
0.866583
-0.00694024
0.938114
0.000970896
0.999385
-0.00720405
1.05152
0.0151856
1.09483
-0.0135917
1.12884
0.0177906
1.16253
0.00833265
1.18594
0.00235635
1.19993
0.0060626
1.21455
0.0105999
1.23109
0.0128184
1.24237
0.0120283
1.24474
0.00534999
1.2414
0.0043306
1.23803
-0.00284846
1.24155
0.00417402
1.2493
0.019527
1.25332
0.0128334
1.25257
0.00113658
1.24939
0.00842859
1.24274
0.00603456
1.2347
-0.00873961
1.23
-0.0009747
1.22859
0.00138024
1.2324
-0.00806329
1.2425
-0.00980853
1.25301
-0.0163586
1.26045
-0.0252664
1.26553
-0.0364295
1.26913
-0.0482687
1.27316
-0.0590713
1.27715
-0.0673007
1.27859
-0.0726284
1.26939
-0.0770967
1.22249
-0.0783852
1.12683
-0.0630006
1.04178
-0.0450298
0.972105
-0.0297747
0.918174
-0.0148438
0.87952
0.00151269
0.850859
0.0185676
0.832129
0.0394853
0.816293
0.0529871
0.0699203
4.88912e-006
-4.38625e-006
2.24584e-005
-2.20719e-005
9.46571e-005
-8.08551e-005
0.000365525
-0.000270248
0.0012994
-0.000811703
0.00420851
-0.00208354
0.0119804
-0.00541155
0.0298391
-0.0100072
0.0653409
-0.0164198
0.126902
-0.023175
0.216534
-0.0290731
0.327419
-0.0277451
0.446483
-0.0222991
0.561795
-0.0148248
0.666897
-0.0119273
0.75958
-0.00771198
0.840282
-0.00725185
0.909739
0.00108103
0.969132
-0.00773558
1.01975
0.0158865
1.06185
-0.0146952
1.0952
0.0185078
1.12751
0.0087458
1.14977
0.00228879
1.16344
0.00572621
1.1779
0.0108051
1.19401
0.0132641
1.20482
0.0125424
1.20675
0.00556057
1.20321
0.00475118
1.19962
-0.00285504
1.20346
0.00432183
1.21125
0.0206056
1.21514
0.0134807
1.21402
0.000484884
1.21146
0.00860164
1.20476
0.00488461
1.19675
-0.0105308
1.19125
-0.000611671
1.18895
0.000707962
1.19106
-0.00974458
1.1992
-0.00962542
1.21045
-0.0158945
1.21921
-0.0260852
1.22579
-0.0381632
1.2298
-0.0501088
1.23313
-0.0604297
1.2359
-0.0689993
1.23855
-0.0756316
1.23453
-0.0803355
1.20531
-0.0812124
1.12303
-0.0709218
1.03751
-0.051057
0.96406
-0.0334371
0.905195
-0.0162425
0.861984
0.000499787
0.829232
0.0182155
0.809135
0.0385089
0.790897
0.0518302
0.0702213
4.70712e-006
-4.4169e-006
2.16074e-005
-2.22104e-005
9.1026e-005
-8.13807e-005
0.000351357
-0.000272128
0.00124873
-0.000818319
0.00404338
-0.00210179
0.0115132
-0.00546782
0.0286765
-0.0101254
0.0627997
-0.0166726
0.121989
-0.0235392
0.208197
-0.029617
0.314879
-0.0283673
0.429489
-0.022861
0.540579
-0.0151987
0.641961
-0.0121722
0.731495
-0.00784295
0.809529
-0.00742461
0.876617
0.00122626
0.934407
-0.00802501
0.982919
0.016545
1.02395
-0.0149379
1.05709
0.0189695
1.08594
0.00880414
1.10924
0.00201728
1.12492
0.00604757
1.13762
0.0111038
1.15077
0.0136806
1.16137
0.0129304
1.16551
0.0056744
1.16371
0.00481598
1.16072
-0.00300025
1.16282
0.0040317
1.1687
0.0216119
1.17275
0.0141203
1.17282
-0.000183808
1.17036
0.00876237
1.16575
0.0056901
1.15887
-0.0119223
1.15274
-0.00144632
1.14957
0.0010029
1.14922
-0.0102427
1.15302
-0.0113894
1.16296
-0.0152208
1.1723
-0.0258023
1.17859
-0.0383115
1.1821
-0.0506316
1.18556
-0.0615373
1.18797
-0.0702325
1.18987
-0.0773946
1.18684
-0.0821378
1.16367
-0.0825129
1.09462
-0.0751579
1.01495
-0.0552825
0.944666
-0.0363259
0.885554
-0.0180107
0.84012
-4.93509e-005
0.805984
0.0174209
0.784844
0.0361884
0.765689
0.0520465
0.0690081
4.53262e-006
-4.44221e-006
2.07933e-005
-2.23224e-005
8.75608e-005
-8.18129e-005
0.00033789
-0.000273713
0.00120082
-0.000824095
0.00388834
-0.00211861
0.0110801
-0.00552132
0.0276167
-0.0102445
0.0605279
-0.0169393
0.117694
-0.0239597
0.201089
-0.0302793
0.304473
-0.0291888
0.415702
-0.0236737
0.5236
-0.0158257
0.62206
-0.0126464
0.708953
-0.00811963
0.784672
-0.00775158
0.849739
0.00107187
0.905954
-0.00813876
0.952464
0.016393
0.992737