/*--------------------------------*- C++ -*----------------------------------*\
| =========                 |                                                 |
| \\      /  F ield         | OpenFOAM: The Open Source CFD Toolbox           |
|  \\    /   O peration     | Version:  5.x                                   |
|   \\  /    A nd           | Web:      www.OpenFOAM.org                      |
|    \\/     M anipulation  |                                                 |
\*---------------------------------------------------------------------------*/
/*   Windows 32 and 64 bit porting by blueCAPE: http://www.bluecape.com.pt   *\
|  Based on Windows porting (2.0.x v4) by Symscape: http://www.symscape.com   |
\*---------------------------------------------------------------------------*/
FoamFile
{
    version     2.0;
    format      ascii;
    class       volScalarField;
    location    "0.007";
    object      T;
}
// * * * * * * * * * * * * * * * * * * * * * * * * * * * * * * * * * * * * * //

dimensions      [0 0 0 1 0 0 0];

internalField   nonuniform List<scalar> 
10000
(
348.432
348.432
348.43
348.425
348.405
348.337
348.137
347.634
346.543
344.482
341.151
336.553
331.034
325.061
319.04
313.123
307.439
301.833
296.985
290.89
287.931
282.084
277.171
274.844
271.84
267.095
262.797
260.578
259.91
259.259
257.291
253.946
251.823
251.19
251.264
252.155
253.76
254.464
254.48
253.483
250.83
248.793
247.646
247.13
246.956
246.928
247.013
247.759
251.121
262.34
282.39
303.343
324.772
345.065
365.004
381.632
397.277
409.8
418.183
429.059
348.432
348.432
348.43
348.425
348.405
348.339
348.143
347.651
346.582
344.555
341.272
336.721
331.241
325.29
319.276
313.358
307.659
302.054
297.123
291.114
288.059
281.977
277.342
275.055
271.6
266.583
262.551
260.702
260.03
258.967
256.163
252.778
250.922
250.506
250.671
251.817
253.17
253.531
253.225
251.411
249.168
247.86
247.249
247.049
247.021
247.06
247.316
248.438
252.932
266.786
288.445
311.466
334.369
355.074
373.087
387.418
398.851
406.18
411.643
413.102
348.432
348.432
348.43
348.425
348.406
348.339
348.144
347.653
346.585
344.561
341.281
336.735
331.262
325.32
319.32
313.418
307.735
302.202
297.08
291.825
287.269
283.083
278.003
274.263
271.687
268.177
263.89
260.602
259.223
258.704
257.697
255.141
252.539
251.297
251.155
251.423
252.612
253.874
254.431
254.431
253.694
251.969
250.727
250.054
249.762
249.648
249.65
250.083
252.841
263.816
284.604
305.674
326.519
345.842
363.102
377.039
389.105
397.559
404.588
409.777
348.432
348.432
348.43
348.425
348.406
348.341
348.149
347.667
346.617
344.625
341.386
336.884
331.447
325.528
319.535
313.635
307.934
302.439
297.056
292.518
286.486
283.688
278.711
273.44
270.755
268.716
265.049
260.681
257.702
256.657
256.413
255.872
253.885
251.384
250.328
250.219
250.447
251.386
252.544
253.071
253.127
252.858
251.938
251.145
250.733
250.6
250.608
251.275
255.474
270.666
294.129
316.491
337.21
355.016
369.914
381.35
390.82
397.167
402.253
405.821
348.432
348.432
348.43
348.425
348.406
348.342
348.15
347.67
346.623
344.634
341.4
336.904
331.473
325.562
319.581
313.694
308.013
302.542
297.188
292.66
286.705
283.886
278.969
273.778
271.087
269.064
265.486
261.208
258.255
257.176
256.927
256.454
254.637
252.176
251.136
251.017
251.228
252.143
253.35
253.891
253.966
253.714
252.737
251.846
251.359
251.158
251.159
251.784
255.858
270.71
294.169
316.387
336.682
354.122
368.609
379.515
388.638
394.989
400.253
404.644
348.432
348.432
348.43
348.425
348.406
348.343
348.155
347.682
346.651
344.689
341.492
337.036
331.639
325.75
319.778
313.893
308.207
302.711
297.382
292.718
286.916
284.005
278.76
273.838
271.401
268.994
264.904
260.644
258.145
257.411
257.075
256.027
253.3
251.053
250.267
250.261
250.751
252.045
253.036
253.327
253.184
252.338
251.232
250.515
250.169
250.07
250.082
250.72
254.731
269.356
293.235
316.36
337.546
355.553
370.205
381.085
389.853
395.627
400.189
403.463
348.432
348.432
348.43
348.425
348.407
348.343
348.156
347.685
346.657
344.701
341.511
337.06
331.669
325.787
319.826
313.951
308.281
302.813
297.49
292.885
287.072
284.182
279.092
274.106
271.58
269.322
265.439
261.203
258.57
257.722
257.426
256.595
254.158
251.862
251.018
250.97
251.348
252.555
253.649
254.012
253.926
253.128
251.765
250.881
250.43
250.243
250.22
250.607
253.453
265.029
287.807
310.488
331.545
349.9
365.317
376.967
386.653
393.387
398.709
402.962
348.432
348.432
348.43
348.425
348.407
348.345
348.16
347.696
346.681
344.749
341.591
337.178
331.819
325.958
320.006
314.135
308.461
302.973
297.659
292.98
287.227
284.288
278.993
274.157
271.766
269.245
265.051
260.837
258.454
257.778
257.383
256.127
253.255
251.061
250.303
250.31
250.888
252.27
253.239
253.483
253.207
252.005
250.699
249.917
249.539
249.398
249.395
249.824
252.816
264.763
287.731
310.736
332.297
351.068
366.68
378.406
387.917
394.388
399.393
403.075
348.432
348.432
348.43
348.426
348.407
348.345
348.161
347.699
346.689
344.763
341.613
337.206
331.852
325.997
320.054
314.192
308.531
303.069
297.761
293.126
287.377
284.45
279.281
274.398
271.942
269.545
265.512
261.317
258.838
258.08
257.731
256.648
253.96
251.742
250.948
250.925
251.39
252.706
253.791
254.102
253.889
252.655
251.033
250.016
249.501
249.3
249.267
249.582
252.029
262.348
284.404
307.153
328.463
347.192
363.082
375.152
385.259
392.34
397.906
402.539
348.432
348.432
348.43
348.426
348.407
348.346
348.165
347.708
346.71
344.805
341.683
337.31
331.987
326.154
320.22
314.363
308.699
303.221
297.912
293.247
287.484
284.57
279.253
274.422
272.044
269.508
265.292
261.064
258.667
257.985
257.581
256.303
253.39
251.138
250.332
250.328
250.908
252.345
253.376
253.635
253.315
251.909
250.369
249.437
248.985
248.819
248.808
249.169
251.787
262.57
285.003
308.015
329.646
348.666
364.691
376.803
386.659
393.342
398.569
402.786
348.432
348.432
348.43
348.426
348.408
348.347
348.166
347.713
346.719
344.82
341.707
337.34
332.022
326.193
320.267
314.416
308.764
303.312
298
293.397
287.594
284.726
279.545
274.613
272.152
269.792
265.769
261.521
258.959
258.177
257.832
256.779
254.089
251.776
250.892
250.847
251.298
252.619
253.753
254.086
253.846
252.493
250.739
249.636
249.079
248.862
248.832
249.124
251.445
261.357
283.162
305.895
327.153
345.839
361.841
374.081
384.254
391.487
397.206
402.221
348.432
348.432
348.43
348.426
348.408
348.348
348.169
347.72
346.737
344.857
341.769
337.434
332.144
326.336
320.421
314.576
308.922
303.455
298.143
293.515
287.697
284.84
279.545
274.638
272.239
269.779
265.612
261.317
258.799
258.063
257.687
256.532
253.664
251.273
250.365
250.337
250.85
252.273
253.397
253.701
253.413
251.98
250.227
249.124
248.57
248.358
248.335
248.642
251.008
261.017
283.077
306.115
327.576
346.396
362.477
374.633
384.513
391.504
396.947
402.029
348.432
348.432
348.43
348.426
348.408
348.348
348.171
347.725
346.746
344.873
341.794
337.466
332.181
326.375
320.466
314.627
308.983
303.54
298.22
293.659
287.788
284.973
279.837
274.802
272.294
270.025
266.079
261.755
259.036
258.185
257.857
256.934
254.352
251.874
250.847
250.762
251.15
252.414
253.65
254.05
253.864
252.575
250.589
249.274
248.581
248.299
248.24
248.422
250.093
257.904
278.097
301.245
323.007
342.108
358.697
371.388
381.795
389.274
394.793
400.708
348.432
348.432
348.43
348.426
348.408
348.349
348.174
347.731
346.762
344.905
341.85
337.549
332.291
326.508
320.608
314.776
309.131
303.674
298.359
293.764
287.9
285.083
279.831
274.842
272.404
270.028
265.932
261.571
258.914
258.105
257.757
256.752
253.99
251.432
250.397
250.329
250.758
252.124
253.357
253.739
253.524
252.188
250.211
248.906
248.228
247.959
247.907
248.071
249.56
256.609
275.908
299.265
321.53
341.189
358.244
371.223
381.749
389.25
394.636
400.421
348.432
348.432
348.431
348.426
348.408
348.35
348.175
347.736
346.771
344.922
341.875
337.582
332.328
326.546
320.652
314.823
309.187
303.752
298.431
293.891
287.991
285.2
280.083
274.997
272.465
270.234
266.321
261.954
259.144
258.245
257.919
257.059
254.539
251.941
250.808
250.695
251.045
252.258
253.552
253.994
253.836
252.59
250.475
249.036
248.268
247.947
247.865
247.952
248.976
254.297
270.99
294.074
316.547
336.705
354.464
368.288
379.636
387.786
393.489
399.718
348.432
348.432
348.431
348.426
348.409
348.351
348.177
347.742
346.785
344.95
341.925
337.657
332.429
326.667
320.784
314.964
309.328
303.878
298.568
293.983
288.11
285.312
280.063
275.053
272.609
270.25
266.163
261.777
259.071
258.233
257.886
256.918
254.176
251.534
250.433
250.343
250.736
252.069
253.343
253.75
253.544
252.19
250.101
248.702
247.966
247.67
247.59
247.672
248.571
253.257
268.712
291.827
314.749
335.545
353.85
368.017
379.535
387.759
393.546
399.791
348.432
348.432
348.431
348.426
348.409
348.351
348.179
347.746
346.794
344.967
341.95
337.69
332.466
326.706
320.826
315.007
309.379
303.949
298.635
294.095
288.197
285.418
280.276
275.194
272.677
270.43
266.482
262.099
259.288
258.39
258.051
257.161
254.587
251.943
250.778
250.66
251.004
252.224
253.514
253.946
253.764
252.416
250.222
248.736
247.941
247.607
247.498
247.541
248.167
251.743
264.781
287.406
310.424
331.548
350.468
365.429
377.727
386.544
392.65
399.372
348.432
348.432
348.431
348.426
348.409
348.352
348.181
347.751
346.806
344.993
341.995
337.757
332.557
326.817
320.949
315.14
309.511
304.069
298.766
294.18
288.316
285.526
280.261
275.259
272.829
270.455
266.343
261.949
259.245
258.401
258.044
257.058
254.279
251.596
250.477
250.372
250.749
252.07
253.358
253.763
253.543
252.098
249.911
248.445
247.669
247.353
247.253
247.291
247.866
251.154
263.374
285.853
309.074
330.555
349.826
365.012
377.494
386.404
392.588
399.322
348.432
348.432
348.431
348.426
348.409
348.352
348.183
347.755
346.815
345.009
342.02
337.79
332.594
326.855
320.989
315.18
309.559
304.133
298.828
294.281
288.397
285.623
280.447
275.382
272.89
270.613
266.617
262.226
259.436
258.549
258.192
257.258
254.609
251.935
250.754
250.638
250.976
252.214
253.499
253.913
253.709
252.255
249.98
248.459
247.649
247.317
247.21
247.235
247.71
250.51
261.343
283.324
306.526
328.039
347.521
363.054
375.961
385.234
391.598
398.798
348.432
348.432
348.431
348.426
348.409
348.353
348.185
347.76
346.826
345.032
342.06
337.851
332.677
326.957
321.103
315.304
309.684
304.247
298.954
294.361
288.517
285.727
280.431
275.459
273.054
270.643
266.488
262.098
259.425
258.59
258.215
257.184
254.333
251.634
250.527
250.41
250.778
252.111
253.406
253.794
253.545
251.989
249.749
248.272
247.495
247.183
247.088
247.115
247.562
250.148
260.254
282.038
305.695
327.715
347.572
363.247
376.105
385.348
391.49
398.603
348.432
348.432
348.431
348.426
348.409
348.353
348.186
347.764
346.835
345.048
342.085
337.884
332.714
326.994
321.141
315.341
309.727
304.305
299.012
294.449
288.594
285.816
280.59
275.569
273.115
270.782
266.717
262.331
259.596
258.737
258.354
257.347
254.586
251.911
250.739
250.632
250.975
252.248
253.521
253.915
253.691
252.168
249.884
248.352
247.51
247.139
247.005
247.003
247.295
249.217
257.361
277.838
301.822
324.347
344.931
361.443
374.944
384.724
390.983
398.282
348.432
348.432
348.431
348.426
348.409
348.354
348.188
347.768
346.845
345.068
342.121
337.939
332.789
327.088
321.247
315.458
309.846
304.412
299.133
294.52
288.722
285.913
280.565
275.667
273.294
270.809
266.592
262.228
259.615
258.803
258.404
257.306
254.363
251.66
250.568
250.443
250.798
252.142
253.493
253.907
253.703
252.264
249.945
248.295
247.302
246.803
246.584
246.524
246.63
247.707
253.182
270.773
296.004
320.002
342.017
359.75
374.122
384.473
391.095
398.477
348.432
348.432
348.431
348.426
348.41
348.355
348.189
347.772
346.853
345.084
342.145
337.971
332.825
327.124
321.284
315.492
309.885
304.463
299.195
294.575
288.831
285.983
280.651
275.813
273.418
270.912
266.714
262.398
259.814
259.019
258.593
257.458
254.536
251.866
250.707
250.599
250.915
252.18
253.607
254.139
254.095
253.128
250.662
248.621
247.319
246.636
246.331
246.23
246.267
246.856
250.126
262.434
286.449
310.964
334.305
353.878
370.134
382.152
389.885
398.228
348.432
348.432
348.431
348.426
348.41
348.355
348.191
347.776
346.862
345.103
342.177
338.021
332.894
327.211
321.382
315.602
309.999
304.552
299.377
294.4
289.547
285.261
281.041
276.491
273.083
270.41
266.935
263.032
260.022
258.738
258.204
257.185
254.715
252.09
250.811
250.582
250.752
251.594
253.183
254.019
254.204
254.005
252.575
250.117
248.454
247.6
247.261
247.157
247.178
247.623
250.233
260.417
282.064
305.277
328.368
348.542
365.8
379.151
387.838
397.608
348.432
348.432
348.431
348.426
348.41
348.355
348.192
347.78
346.87
345.117
342.2
338.052
332.929
327.245
321.417
315.633
310.037
304.582
299.522
294.124
290.423
284.246
281.448
277.581
272.511
269.32
267.387
264.559
260.987
258.042
256.595
256.164
255.599
253.995
252.04
251.093
250.918
250.99
251.586
252.77
253.552
253.777
253.623
252.544
251.044
250.218
249.881
249.77
249.775
250.127
252.375
261.483
281.661
303.408
325.112
344.409
361.413
375.448
384.589
396.155
348.432
348.432
348.431
348.426
348.41
348.356
348.194
347.783
346.879
345.134
342.231
338.098
332.992
327.326
321.509
315.736
310.143
304.679
299.638
294.164
290.594
284.313
281.27
277.966
272.679
268.955
267.204
264.922
261.368
257.985
256.085
255.576
255.346
254.53
252.586
251.233
250.827
250.789
251.099
252.095
252.974
253.342
253.33
252.819
251.848
251.31
251.092
251.006
251.014
251.391
253.892
263.92
284.171
304.947
325.594
344
360.219
374.132
382.704
394.962
348.432
348.432
348.431
348.426
348.41
348.356
348.195
347.787
346.886
345.148
342.252
338.127
333.026
327.358
321.541
315.766
310.177
304.721
299.688
294.209
290.673
284.382
281.29
278.104
272.819
268.915
267.187
265.168
261.698
258.164
255.993
255.373
255.242
254.784
253.122
251.544
250.932
250.877
251.078
251.863
252.704
253.065
253.1
252.876
252.262
251.854
251.658
251.559
251.555
251.919
254.501
264.956
285.778
306.349
326.332
344.068
359.513
373.258
381.065
393.712
348.432
348.432
348.431
348.426
348.41
348.357
348.196
347.79
346.894
345.164
342.28
338.169
333.084
327.433
321.628
315.863
310.276
304.816
299.787
294.289
290.772
284.476
281.302
278.225
272.958
268.909
267.134
265.213
261.799
258.192
255.95
255.282
255.133
254.689
253.091
251.505
250.91
250.818
251.039
251.786
252.548
252.934
252.994
252.838
252.36
252.019
251.837
251.747
251.742
252.116
254.791
265.547
286.804
307.79
327.664
344.996
359.839
373.416
380.47
392.98
348.432
348.432
348.431
348.426
348.41
348.357
348.197
347.793
346.9
345.177
342.301
338.197
333.116
327.464
321.658
315.89
310.306
304.855
299.827
294.342
290.821
284.531
281.384
278.284
273.02
268.964
267.196
265.343
261.976
258.328
255.951
255.219
255.11
254.816
253.44
251.698
250.938
250.844
250.988
251.613
252.439
252.855
252.953
252.889
252.551
252.176
251.954
251.855
251.85
252.23
254.979
265.873
287.145
308.245
328.063
345.179
359.448
373.148
379.729
392.102
348.432
348.432
348.431
348.426
348.41
348.358
348.198
347.796
346.908
345.192
342.326
338.236
333.17
327.534
321.738
315.981
310.4
304.947
299.918
294.433
290.899
284.619
281.461
278.355
273.09
269.045
267.257
265.355
261.963
258.31
255.985
255.269
255.133
254.789
253.339
251.592
250.866
250.742
250.919
251.592
252.399
252.853
252.971
252.929
252.629
252.2
251.993
251.905
251.889
252.268
255.057
266.086
287.505
308.908
328.816
345.873
359.467
373.126
379.319
391.425
348.432
348.432
348.431
348.426
348.411
348.358
348.2
347.799
346.914
345.204
342.346
338.263
333.2
327.563
321.767
316.006
310.428
304.981
299.952
294.484
290.935
284.663
281.556
278.385
273.107
269.124
267.367
265.449
262.031
258.374
256.021
255.309
255.197
254.902
253.504
251.667
250.853
250.751
250.898
251.519
252.391
252.86
252.996
252.976
252.711
252.238
252.004
251.912
251.894
252.272
255.063
266.149
287.593
309.142
329.214
346.443
359.692
373.237
379.131
390.863
348.432
348.432
348.431
348.426
348.411
348.358
348.201
347.802
346.921
345.217
342.369
338.299
333.251
327.628
321.842
316.092
310.517
305.069
300.039
294.573
291.013
284.749
281.633
278.458
273.181
269.205
267.433
265.471
262.027
258.368
256.07
255.379
255.243
254.892
253.401
251.567
250.79
250.665
250.838
251.53
252.396
252.896
253.037
253.006
252.682
252.146
251.9
251.791
251.771
252.143
254.916
266.026
287.53
309.199
329.427
346.885
360.152
373.566
379.33
390.72
348.432
348.432
348.431
348.426
348.411
348.359
348.202
347.805
346.927
345.229
342.388
338.324
333.279
327.655
321.869
316.114
310.541
305.098
300.066
294.622
291.034
284.787
281.739
278.458
273.17
269.295
267.559
265.536
262.037
258.391
256.109
255.447
255.331
254.996
253.495
251.587
250.747
250.647
250.811
251.485
252.419
252.913
253.04
253.001
252.662
252.126
251.852
251.763
251.748
252.099
254.713
265.36
286.645
308.303
328.676
346.434
359.958
373.518
379.295
390.6
348.432
348.432
348.431
348.426
348.411
348.359
348.203
347.808
346.933
345.241
342.41
338.358
333.326
327.716
321.94
316.196
310.625
305.181
300.149
294.712
291.106
284.871
281.836
278.515
273.231
269.406
267.662
265.551
261.991
258.372
256.204
255.599
255.449
255.001
253.305
251.453
250.696
250.597
250.81
251.611
252.502
252.969
253.057
252.97
252.554
252.086
251.839
251.76
251.75
252.075
254.515
264.648
285.641
307.201
327.522
345.404
359.11
372.976
378.905
390.329
348.432
348.432
348.431
348.426
348.411
348.359
348.204
347.81
346.938
345.252
342.427
338.38
333.352
327.742
321.964
316.216
310.647
305.208
300.173
294.755
291.121
284.904
281.927
278.504
273.213
269.489
267.778
265.592
261.969
258.375
256.253
255.688
255.547
255.068
253.295
251.429
250.662
250.594
250.836
251.656
252.548
252.952
252.999
252.868
252.432
252.057
251.83
251.736
251.735
252.038
254.35
264.152
285.074
306.623
326.787
344.586
358.109
372.003
377.969
389.707
348.432
348.432
348.431
348.426
348.411
348.36
348.205
347.813
346.944
345.264
342.448
338.412
333.396
327.799
322.031
316.293
310.727
305.287
300.254
294.84
291.194
284.988
282.022
278.564
273.279
269.605
267.886
265.61
261.926
258.37
256.374
255.869
255.682
255.046
253.068
251.308
250.649
250.602
250.923
251.84
252.636
252.975
252.974
252.723
252.242
251.94
251.756
251.656
251.647
251.913
254.048
263.399
284.27
306.066
326.384
344.232
357.559
371.343
377.11
388.903
348.432
348.432
348.431
348.427
348.411
348.36
348.206
347.815
346.949
345.274
342.463
338.433
333.42
327.822
322.053
316.311
310.746
305.311
300.274
294.875
291.206
285.015
282.092
278.554
273.263
269.668
267.976
265.637
261.899
258.371
256.419
255.942
255.754
255.065
253.022
251.283
250.629
250.606
250.971
251.89
252.659
252.947
252.92
252.597
252.053
251.709
251.508
251.381
251.348
251.575
253.556
262.506
283.282
305.317
325.847
344.005
357.225
371.013
376.565
388.039
348.432
348.432
348.431
348.427
348.411
348.36
348.206
347.817
346.955
345.285
342.483
338.463
333.462
327.876
322.116
316.384
310.823
305.386
300.353
294.957
291.281
285.1
282.18
278.623
273.339
269.777
268.073
265.666
261.888
258.392
256.536
256.098
255.865
255.038
252.876
251.215
250.634
250.622
251.04
252.005
252.745
253.022
252.972
252.541
251.85
251.41
251.179
251.053
251.018
251.215
253.061
261.612
282.173
304.443
325.215
343.697
357.002
370.896
376.354
387.445
348.432
348.432
348.431
348.427
348.411
348.361
348.207
347.819
346.959
345.294
342.497
338.483
333.484
327.898
322.137
316.4
310.839
305.407
300.369
294.986
291.289
285.122
282.238
278.606
273.323
269.829
268.139
265.679
261.868
258.395
256.556
256.129
255.905
255.067
252.885
251.201
250.588
250.581
250.995
251.985
252.78
253.067
253.01
252.537
251.787
251.315
251.083
250.965
250.931
251.107
252.797
260.827
280.907
303.239
324.154
343.017
356.568
370.713
376.238
387.112
348.432
348.432
348.431
348.427
348.411
348.361
348.208
347.822
346.965
345.304
342.516
338.511
333.524
327.948
322.196
316.469
310.912
305.48
300.446
295.063
291.368
285.205
282.312
278.692
273.415
269.917
268.212
265.734
261.918
258.444
256.634
256.218
255.975
255.095
252.867
251.184
250.589
250.575
250.998
252.02
252.832
253.14
253.083
252.588
251.801
251.312
251.074
250.959
250.926
251.09
252.672
260.306
279.977
302.293
323.206
342.267
355.971
370.342
376.018
386.861
348.432
348.432
348.431
348.427
348.411
348.361
348.209
347.824
346.969
345.312
342.529
338.529
333.544
327.968
322.215
316.484
310.927
305.499
300.46
295.086
291.372
285.222
282.355
278.674
273.4
269.947
268.251
265.743
261.908
258.442
256.627
256.213
255.985
255.123
252.893
251.176
250.543
250.532
250.947
251.979
252.827
253.143
253.087
252.595
251.812
251.328
251.097
250.99
250.959
251.112
252.611
259.925
279.244
301.577
322.537
341.708
355.545
370.022
375.846
386.695
348.432
348.432
348.431
348.427
348.411
348.361
348.21
347.826
346.974
345.323
342.546
338.556
333.581
328.016
322.271
316.549
310.996
305.569
300.534
295.164
291.446
285.305
282.439
278.751
273.487
270.048
268.337
265.799
261.954
258.494
256.716
256.315
256.064
255.151
252.872
251.166
250.56
250.544
250.972
252.033
252.872
253.189
253.125
252.61
251.842
251.378
251.158
251.054
251.022
251.166
252.613
259.718
278.74
301.021
322.029
341.277
355.231
369.74
375.735
386.557
348.432
348.432
348.431
348.427
348.412
348.362
348.21
347.828
346.978
345.33
342.558
338.572
333.6
328.034
322.288
316.562
311.008
305.584
300.543
295.185
291.44
285.319
282.484
278.713
273.459
270.087
268.38
265.781
261.903
258.475
256.729
256.34
256.09
255.137
252.826
251.127
250.511
250.508
250.963
252.038
252.878
253.176
253.092
252.543
251.808
251.373
251.162
251.059
251.026
251.171
252.621
259.716
278.694
300.888
321.849
341.113
355.174
369.68
375.756
386.525
348.432
348.432
348.431
348.427
348.412
348.362
348.211
347.83
346.983
345.34
342.575
338.598
333.635
328.079
322.341
316.624
311.075
305.652
300.614
295.265
291.508
285.404
282.581
278.773
273.539
270.215
268.49
265.821
261.916
258.529
256.864
256.499
256.208
255.134
252.754
251.105
250.545
250.549
251.054
252.155
252.947
253.217
253.107
252.505
251.779
251.35
251.128
251.01
250.971
251.12
252.592
259.772
278.846
301
321.886
341.064
355.187
369.692
375.828
386.565
348.432
348.432
348.431
348.427
348.412
348.362
348.212
347.831
346.986
345.346
342.586
338.612
333.652
328.096
322.356
316.635
311.085
305.665
300.62
295.281
291.498
285.414
282.619
278.725
273.504
270.258
268.53
265.777
261.834
258.504
256.897
256.548
256.236
255.055
252.644
251.043
250.5
250.527
251.095
252.198
252.962
253.201
253.059
252.392
251.647
251.195
250.931
250.784
250.74
250.894
252.416
259.82
279.203
301.409
322.253
341.284
355.362
369.803
375.995
386.695
348.432
348.432
348.431
348.427
348.412
348.362
348.213
347.833
346.991
345.356
342.602
338.637
333.686
328.139
322.407
316.694
311.149
305.73
300.69
295.356
291.574
285.495
282.702
278.806
273.592
270.371
268.631
265.832
261.871
258.576
257.035
256.7
256.344
255.044
252.609
251.049
250.556
250.587
251.188
252.307
253.054
253.285
253.127
252.383
251.528
250.976
250.626
250.44
250.392
250.551
252.155
259.845
279.571
301.866
322.745
341.709
355.677
369.975
376.099
386.797
348.432
348.432
348.431
348.427
348.412
348.362
348.213
347.835
346.994
345.361
342.611
338.65
333.701
328.153
322.42
316.703
311.156
305.739
300.695
295.361
291.57
285.495
282.714
278.777
273.563
270.378
268.638
265.799
261.82
258.549
257.023
256.691
256.33
254.986
252.547
251.002
250.501
250.542
251.156
252.306
253.097
253.346
253.186
252.377
251.413
250.784
250.402
250.23
250.194
250.37
252.056
260.014
279.978
302.218
323.054
341.976
355.989
370.221
376.267
386.941
348.432
348.432
348.431
348.427
348.412
348.363
348.214
347.837
346.998
345.37
342.627
338.674
333.733
328.194
322.468
316.76
311.218
305.801
300.766
295.43
291.654
285.574
282.783
278.882
273.668
270.46
268.715
265.892
261.923
258.64
257.112
256.78
256.411
255.065
252.616
251.059
250.563
250.593
251.191
252.379
253.205
253.476
253.314
252.459
251.43
250.761
250.365
250.206
250.171
250.349
252.066
260.153
280.299
302.552
323.305
342.17
356.068
370.311
376.288
386.97
348.432
348.432
348.431
348.427
348.412
348.363
348.214
347.838
347.001
345.376
342.635
338.685
333.747
328.208
322.48
316.768
311.225
305.809
300.771
295.435
291.646
285.578
282.798
278.85
273.644
270.466
268.723
265.885
261.907
258.621
257.08
256.751
256.407
255.109
252.651
251.068
250.539
250.569
251.155
252.354
253.208
253.489
253.33
252.481
251.457
250.77
250.371
250.226
250.187
250.361
252.066
260.145
280.421
302.828
323.578
342.355
356.105
370.33
376.254
386.96
348.432
348.432
348.431
348.427
348.412
348.363
348.215
347.84
347.005
345.385
342.651
338.71
333.781
328.252
322.534
316.831
311.295
305.883
300.849
295.535
291.725
285.686
282.91
278.963
273.764
270.576
268.836
266.026
262.055
258.73
257.159
256.828
256.502
255.284
252.805
251.15
250.574
250.585
251.12
252.306
253.185
253.498
253.372
252.602
251.567
250.84
250.422
250.271
250.224
250.382
251.999
259.804
280.072
302.861
323.772
342.568
356.002
370.262
375.869
386.725
348.432
348.432
348.431
348.427
348.412
348.363
348.216
347.843
347.012
345.397
342.671
338.736
333.811
328.281
322.558
316.847
311.303
305.901
300.837
295.541
291.696
285.657
282.891
278.909
273.674
270.473
268.756
265.976
261.982
258.586
256.924
256.577
256.296
255.186
252.714
250.971
250.306
250.322
250.806
251.998
252.991
253.381
253.32
252.736
251.701
250.915
250.468
250.298
250.236
250.366
251.821
259.048
278.733
301.688
323.626
341.955
357.773
368.238
378.645
382.148
348.432
348.432
348.431
348.427
348.412
348.363
348.215
347.839
347.003
345.38
342.641
338.691
333.753
328.217
322.495
316.789
311.252
305.822
300.806
295.463
291.693
285.613
282.786
278.988
273.744
270.403
268.674
266.027
262.125
258.677
256.963
256.597
256.322
255.323
252.942
251.181
250.526
250.505
250.952
252.132
253.214
253.685
253.677
253.232
252.097
251.146
250.604
250.373
250.294
250.432
251.96
259.454
279.276
301.907
323.651
341.675
358.104
368.329
378.973
382.37
348.432
348.432
348.431
348.427
348.412
348.364
348.216
347.843
347.011
345.396
342.669
338.733
333.81
328.282
322.562
316.853
311.309
305.907
300.852
295.517
291.745
285.648
282.829
278.987
273.728
270.397
268.684
266.044
262.116
258.615
256.843
256.478
256.231
255.294
252.91
251.044
250.318
250.295
250.706
251.849
253.001
253.529
253.552
253.191
252.064
251.043
250.487
250.229
250.143
250.273
251.759
259.124
278.834
301.667
323.456
341.613
357.87
367.991
378.6
382.034
348.432
348.432
348.431
348.427
348.412
348.363
348.216
347.84
347.005
345.382
342.644
338.693
333.752
328.213
322.489
316.781
311.245
305.812
300.803
295.452
291.691
285.606
282.767
279.004
273.749
270.367
268.642
266.043
262.166
258.674
256.907
256.532
256.273
255.348
253.023
251.192
250.463
250.444
250.855
252.013
253.181
253.717
253.744
253.376
252.223
251.174
250.56
250.287
250.192
250.299
251.617
258.334
277.275
300.161
322.197
340.904
357.535
368.384
379.169
382.69
348.432
348.432
348.431
348.427
348.412
348.364
348.217
347.843
347.011
345.395
342.667
338.73
333.807
328.282
322.564
316.858
311.315
305.912
300.865
295.506
291.774
285.65
282.797
279.023
273.76
270.375
268.659
266.07
262.169
258.636
256.844
256.478
256.232
255.327
252.979
251.082
250.347
250.32
250.709
251.833
253.048
253.625
253.671
253.349
252.23
251.141
250.505
250.208
250.102
250.192
251.391
257.695
276.106
299.029
321.034
339.836
356.455
367.511
378.536
382.247
348.432
348.432
348.431
348.427
348.412
348.364
348.216
347.842
347.007
345.385
342.647
338.695
333.752
328.209
322.484
316.773
311.238
305.797
300.798
295.439
291.691
285.6
282.744
279.022
273.755
270.332
268.613
266.056
262.198
258.671
256.865
256.483
256.229
255.349
253.08
251.206
250.431
250.413
250.809
251.939
253.156
253.729
253.778
253.46
252.336
251.244
250.572
250.255
250.144
250.225
251.368
257.485
275.615
298.34
320.19
338.857
355.459
366.528
377.68
381.501
348.432
348.432
348.431
348.427
348.412
348.364
348.217
347.843
347.011
345.394
342.665
338.727
333.803
328.28
322.566
316.863
311.321
305.921
300.878
295.496
291.8
285.654
282.766
279.054
273.793
270.353
268.632
266.097
262.225
258.662
256.837
256.462
256.224
255.367
253.068
251.133
250.373
250.344
250.714
251.809
253.06
253.666
253.734
253.454
252.383
251.253
250.575
250.247
250.122
250.184
251.199
256.836
274.359
297.259
319.33
337.976
354.624
365.521
376.454
380.262
348.432
348.432
348.431
348.427
348.412
348.364
348.217
347.843
347.009
345.388
342.651
338.697
333.753
328.207
322.479
316.765
311.23
305.785
300.794
295.42
291.698
285.593
282.706
279.054
273.776
270.277
268.561
266.084
262.266
258.681
256.795
256.389
256.154
255.366
253.2
251.261
250.433
250.402
250.767
251.845
253.092
253.692
253.772
253.499
252.432
251.327
250.632
250.285
250.156
250.196
251.04
255.959
272.256
295.147
317.601
336.833
354.296
365.808
377.122
381.013
348.432
348.432
348.431
348.427
348.412
348.364
348.217
347.844
347.012
345.394
342.663
338.723
333.797
328.276
322.565
316.867
311.327
305.925
300.893
295.487
291.825
285.66
282.733
279.094
273.832
270.321
268.596
266.132
262.298
258.695
256.816
256.422
256.198
255.402
253.169
251.186
250.4
250.368
250.727
251.791
253.048
253.664
253.754
253.488
252.44
251.306
250.598
250.247
250.111
250.144
250.932
255.617
271.511
294.447
316.965
336.214
353.723
365.223
376.641
380.607
348.432
348.432
348.431
348.427
348.412
348.364
348.218
347.844
347.011
345.391
342.654
338.7
333.754
328.206
322.475
316.758
311.223
305.774
300.788
295.403
291.703
285.588
282.673
279.079
273.796
270.234
268.518
266.107
262.32
258.689
256.735
256.304
256.091
255.371
253.292
251.309
250.44
250.4
250.749
251.794
253.031
253.633
253.739
253.471
252.425
251.308
250.603
250.248
250.117
250.157
251.006
255.975
272.45
295.432
317.869
336.805
354.144
365.325
376.338
380.164
348.432
348.432
348.431
348.427
348.412
348.364
348.218
347.844
347.013
345.394
342.662
338.719
333.791
328.269
322.563
316.869
311.333
305.928
300.906
295.481
291.842
285.666
282.709
279.127
273.862
270.295
268.573
266.167
262.359
258.724
256.804
256.395
256.177
255.41
253.217
251.23
250.439
250.406
250.769
251.825
253.039
253.621
253.714
253.411
252.328
251.222
250.535
250.197
250.07
250.109
250.927
255.74
271.949
295.062
317.673
336.786
354.186
365.487
376.494
380.302
348.432