/*--------------------------------*- C++ -*----------------------------------*\
| =========                 |                                                 |
| \\      /  F ield         | OpenFOAM: The Open Source CFD Toolbox           |
|  \\    /   O peration     | Version:  5.x                                   |
|   \\  /    A nd           | Web:      www.OpenFOAM.org                      |
|    \\/     M anipulation  |                                                 |
\*---------------------------------------------------------------------------*/
/*   Windows 32 and 64 bit porting by blueCAPE: http://www.bluecape.com.pt   *\
|  Based on Windows porting (2.0.x v4) by Symscape: http://www.symscape.com   |
\*---------------------------------------------------------------------------*/
FoamFile
{
    version     2.0;
    format      ascii;
    class       volVectorField;
    location    "0.007";
    object      U;
}
// * * * * * * * * * * * * * * * * * * * * * * * * * * * * * * * * * * * * * //

dimensions      [0 1 -1 0 0 0 0];

internalField   nonuniform List<vector> 
10000
(
(0.000175358 2.36493e-007 0)
(0.00102169 4.21025e-006 4.34817e-021)
(0.0046306 3.22571e-005 4.46815e-021)
(0.0196076 0.000182084 -1.8367e-020)
(0.0750551 0.00083823 2.83062e-020)
(0.260886 0.00324704 -2.62502e-023)
(0.795633 0.0107437 -1.99372e-020)
(2.13362 0.0300128 0)
(5.03958 0.0719961 0)
(10.5296 0.149771 0)
(19.4213 0.275759 -4.25017e-020)
(31.7949 0.438782 2.32747e-021)
(46.8484 0.624775 4.59167e-020)
(63.3103 0.808676 0)
(80.2027 0.991723 0)
(96.9439 1.15328 0)
(113.326 1.31886 0)
(129.256 1.46859 -4.51539e-020)
(144.697 1.60998 9.42771e-020)
(159.559 1.7463 -4.88633e-020)
(173.877 1.8639 4.68634e-020)
(187.495 2.04086 -4.99209e-020)
(200.458 2.17017 0)
(212.776 2.24648 0)
(224.302 2.34953 0)
(234.912 2.48214 0)
(244.655 2.59566 0)
(253.579 2.66854 0)
(261.619 2.70047 -1.06524e-019)
(268.563 2.68231 1.12511e-019)
(274.278 2.80853 0)
(278.956 2.79889 0)
(282.785 2.79613 0)
(285.779 2.7879 0)
(288.056 2.76654 -1.22659e-019)
(289.723 2.59693 2.53912e-019)
(290.753 2.46955 -2.62564e-019)
(291.267 2.33544 1.35411e-019)
(291.53 2.1911 -1.38927e-019)
(291.788 2.09104 1.42247e-019)
(292.204 2.03363 -1.44607e-019)
(292.867 1.88909 1.47393e-019)
(293.806 1.73416 0)
(294.993 1.57635 0)
(296.387 1.42615 -1.58739e-019)
(297.974 1.26785 1.63053e-019)
(299.78 1.08384 0)
(301.791 0.89766 0)
(303.902 0.75788 0)
(305.993 0.584736 1.93137e-019)
(308.125 0.458536 -2.13607e-019)
(310.404 0.403349 0)
(312.839 0.406478 0)
(315.404 0.425604 2.83056e-019)
(318.024 0.47254 -3.07763e-019)
(320.583 0.513102 0)
(322.986 0.609716 0)
(325.144 0.618658 3.74725e-019)
(326.993 0.79329 1.68406e-022)
(328.473 1.08855 -4.13977e-019)
(0.000173518 -1.81882e-006 2.18911e-021)
(0.00100719 -1.18084e-005 -2.24965e-021)
(0.0045459 -5.74873e-005 0)
(0.0191942 -0.000255997 0)
(0.0733052 -0.00100953 0)
(0.254646 -0.00364419 0)
(0.776644 -0.0113282 2.05585e-020)
(2.08404 -0.0303384 -2.12014e-020)
(4.92797 -0.0704382 -2.14435e-020)
(10.3146 -0.144374 2.23625e-020)
(19.0665 -0.260704 0)
(31.2884 -0.408458 -4.4387e-020)
(46.2117 -0.577764 4.75301e-020)
(62.5836 -0.747115 -4.50989e-020)
(79.425 -0.919031 4.85679e-020)
(96.1445 -1.07102 0)
(112.526 -1.22628 0)
(128.471 -1.37108 0)
(143.942 -1.48856 0)
(158.856 -1.64963 0)
(173.236 -1.72246 0)
(186.922 -1.91091 0)
(199.984 -2.03929 0)
(212.413 -2.10341 0)
(224.044 -2.20028 -5.12654e-020)
(234.773 -2.32961 5.41178e-020)
(244.674 -2.44847 -5.25118e-020)
(253.783 -2.53439 5.56748e-020)
(262.006 -2.56578 0)
(269.135 -2.60007 0)
(275.021 -2.60349 0)
(279.87 -2.6528 0)
(283.91 -2.68583 1.19633e-019)
(287.13 -2.66941 -1.24366e-019)
(289.607 -2.58625 0)
(291.467 -2.53036 0)
(292.685 -2.35977 0)
(293.331 -2.24388 1.39316e-019)
(293.661 -2.21518 -1.43162e-019)
(293.918 -1.99511 0)
(294.223 -2.00754 -1.48647e-019)
(294.66 -2.02205 3.03882e-019)
(295.267 -1.9751 -1.5574e-019)
(296.002 -1.89169 0)
(296.817 -1.78839 -1.64295e-019)
(297.688 -1.68054 3.37664e-019)
(298.664 -1.58073 -3.47292e-019)
(299.776 -1.48853 1.79248e-019)
(300.94 -1.39385 0)
(302.048 -1.29432 0)
(303.118 -1.13752 0)
(304.217 -1.01154 0)
(305.352 -0.939177 0)
(306.5 -0.955297 0)
(307.581 -0.969781 -3.25482e-019)
(308.46 -1.07732 3.47307e-019)
(309.012 -1.21277 -3.67324e-019)
(309.186 -1.4024 3.84425e-019)
(308.953 -1.45336 0)
(308.234 -1.52396 0)
(0.000173233 -1.59211e-006 2.26509e-021)
(0.00100533 -5.9082e-006 2.3277e-021)
(0.00453664 -8.20222e-006 -4.78422e-021)
(0.0191564 3.46189e-005 0)
(0.0731695 0.000368478 1.01008e-020)
(0.254248 0.00182563 -1.0385e-020)
(0.775707 0.00714973 0)
(2.0823 0.0222222 0)
(4.92539 0.0577137 0)
(10.3117 0.125116 0)
(19.0651 0.235312 0)
(31.2893 0.38105 0)
(46.2121 0.549271 -4.62907e-020)
(62.5753 0.716592 4.97832e-020)
(79.3981 0.883102 0)
(96.0869 1.03121 -4.74886e-020)
(112.425 1.18378 3.18506e-021)
(128.321 1.32128 9.99639e-020)
(143.72 1.46786 -5.20365e-020)
(158.587 1.5543 0)
(172.833 1.72289 0)
(186.48 1.85819 0)
(199.466 1.96716 5.12708e-020)
(211.733 2.0552 -5.47325e-020)
(223.265 2.15627 0)
(233.964 2.28387 0)
(243.777 2.38494 0)
(252.718 2.43882 0)
(260.781 2.47579 0)
(267.819 2.42331 0)
(273.686 2.61782 0)
(278.507 2.60151 0)
(282.459 2.57465 0)
(285.566 2.57448 0)
(287.939 2.55647 1.31248e-019)
(289.716 2.32375 -1.35926e-019)
(290.867 2.29838 1.39645e-019)
(291.458 2.17499 -1.44659e-019)
(291.756 1.92225 1.48697e-019)
(291.928 1.98366 -1.52886e-019)
(292.1 1.82085 0)
(292.393 1.62482 -1.59817e-019)
(292.797 1.39888 3.26819e-019)
(293.264 1.16438 6.28913e-024)
(293.754 0.932258 -1.71864e-019)
(294.25 0.72916 -1.76534e-019)
(294.803 0.549019 1.81368e-019)
(295.452 0.333839 1.86696e-019)
(296.14 0.156164 -1.93959e-019)
(296.748 0.0370833 0)
(297.292 0.0214898 2.3052e-019)
(297.89 0.0554947 -2.54412e-019)
(298.608 0.121013 0)
(299.476 0.220527 -3.03847e-019)
(300.437 0.401908 3.2784e-019)
(301.376 0.531407 0)
(302.206 0.669122 3.7079e-019)
(302.856 0.881454 -3.89381e-019)
(303.235 1.15095 0)
(303.242 1.22179 0)
(0.000171718 -3.10399e-006 2.34362e-021)
(0.000993606 -1.77044e-005 2.4084e-021)
(0.00446836 -7.55841e-005 4.94976e-021)
(0.0188221 -0.00030232 -1.0174e-020)
(0.0717413 -0.00109049 0)
(0.249115 -0.00372285 0)
(0.759922 -0.0110793 0)
(2.04061 -0.0286365 0)
(4.83045 -0.064799 0)
(10.127 -0.131636 2.33103e-020)
(18.7566 -0.236531 -9.59012e-022)
(30.8442 -0.370207 -2.50422e-020)
(45.6469 -0.519273 0)
(61.9255 -0.668469 -4.83241e-020)
(78.6978 -0.823907 5.20307e-020)
(95.3637 -0.960665 0)
(111.698 -1.101 0)
(127.606 -1.23524 0)
(143.024 -1.33679 -5.06325e-020)
(157.957 -1.48238 5.44248e-020)
(172.221 -1.55875 0)
(185.977 -1.72375 5.26192e-020)
(199.055 -1.84569 -5.60783e-020)
(211.35 -1.90679 0)
(222.979 -1.98671 0)
(233.874 -2.10469 0)
(243.869 -2.22471 -5.67478e-020)
(252.905 -2.31713 2.14321e-021)
(261.021 -2.34784 6.04265e-020)
(268.207 -2.37505 0)
(274.296 -2.36112 0)
(279.366 -2.35097 -6.3431e-020)
(283.571 -2.48915 6.57814e-020)
(286.857 -2.46527 0)
(289.326 -2.33981 0)
(291.207 -2.33267 0)
(292.495 -2.22626 0)
(293.196 -2.08342 0)
(293.595 -2.05626 0)
(293.841 -1.893 0)
(293.986 -1.82496 0)
(294.136 -1.78793 0)
(294.298 -1.74834 1.69894e-019)
(294.424 -1.68989 -1.7402e-019)
(294.47 -1.61937 0)
(294.421 -1.55951 0)
(294.339 -1.49019 0)
(294.314 -1.45499 -1.94096e-019)
(294.314 -1.40158 2.0279e-019)
(294.212 -1.38922 0)
(293.994 -1.30991 0)
(293.771 -1.19002 0)
(293.641 -1.10844 0)
(293.669 -1.08389 0)
(293.824 -1.1366 0)
(294.019 -1.20898 3.65987e-019)
(294.188 -1.26184 -3.85531e-019)
(294.295 -1.17692 -4.02404e-019)
(294.279 -1.1566 4.18948e-019)
(294.067 -1.14631 -4.3418e-019)
(0.0001711 -3.14089e-006 0)
(0.000989631 -1.45543e-005 4.98363e-021)
(0.00444874 -4.34468e-005 -1.64692e-025)
(0.0187401 -9.68249e-005 -1.57882e-020)
(0.0714389 -6.63258e-005 1.08175e-020)
(0.248172 0.000516458 0)
(0.757486 0.00364529 -2.27734e-020)
(2.03534 0.0145188 2.34837e-020)
(4.82069 0.0432044 0)
(10.1113 0.0999 0)
(18.7363 0.19674 0)
(30.8213 0.33086 -2.46019e-020)
(45.6214 0.483244 5.11328e-020)
(61.8912 0.634562 -2.66612e-020)
(78.6478 0.785535 -5.04304e-020)
(95.2868 0.920313 5.43095e-020)
(111.583 1.05905 0)
(127.447 1.19132 0)
(142.807 1.32046 5.24092e-020)
(157.675 1.41819 -5.63358e-020)
(171.857 1.55383 0)
(185.528 1.70348 0)
(198.54 1.79251 0)
(210.752 1.86424 5.56173e-020)
(222.272 1.95951 -5.94208e-020)
(233.062 2.08512 -5.78995e-020)
(242.971 2.18744 6.12336e-020)
(251.928 2.24668 0)
(259.964 2.28417 -6.06393e-020)
(267.037 2.2156 6.39785e-020)
(273.043 2.37203 0)
(278.031 2.31873 0)
(282.139 2.43177 0)
(285.366 2.39684 -6.8533e-020)
(287.785 2.32842 7.08342e-020)
(289.595 2.13662 0)
(290.809 2.15589 0)
(291.44 1.99328 0)
(291.761 1.80559 0)
(291.923 1.84465 1.63253e-019)
(292.006 1.66812 -3.3565e-019)
(292.143 1.43045 1.72269e-019)
(292.323 1.21223 1.76334e-019)
(292.496 0.990112 -1.80546e-019)
(292.614 0.765153 0)
(292.657 0.55936 0)
(292.664 0.412991 0)
(292.701 0.230253 0)
(292.737 0.0334268 2.10094e-019)
(292.652 -0.163099 -2.28502e-019)
(292.413 -0.273885 0)
(292.116 -0.259142 2.81905e-019)
(291.871 -0.134916 -3.08236e-019)
(291.766 0.0702935 -3.33075e-019)
(291.808 0.25208 1.32982e-022)
(291.926 0.483416 3.77001e-019)
(292.058 0.80265 -3.96392e-019)
(292.112 1.23656 4.14352e-019)
(292.038 1.40818 4.31153e-019)
(291.81 1.69134 -8.9584e-019)
(0.000169796 -4.20438e-006 0)
(0.000979832 -2.27572e-005 0)
(0.00439236 -9.10765e-005 0)
(0.0184651 -0.000341412 0)
(0.0702593 -0.00115855 0)
(0.243912 -0.0037448 0)
(0.744285 -0.0107896 2.35624e-020)
(2.00016 -0.0268278 -2.4296e-020)
(4.73971 -0.059073 0)
(9.95221 -0.118926 0)
(18.4677 -0.212523 -2.5244e-020)
(30.4293 -0.332464 2.68111e-020)
(45.1182 -0.468315 0)
(61.3084 -0.599307 0)
(78.0155 -0.738859 0)
(94.6308 -0.860348 0)
(110.922 -0.987282 0)
(126.792 -1.10896 0)
(142.175 -1.20473 0)
(157.077 -1.32407 0)
(171.328 -1.41635 0)
(185.058 -1.55408 -5.63901e-020)
(198.109 -1.6555 6.00352e-020)
(210.418 -1.71234 0)
(222.071 -1.78913 0)
(232.965 -1.89454 0)
(242.955 -2.00844 6.07058e-020)
(252.024 -2.09854 -6.37972e-020)
(260.215 -2.11557 0)
(267.51 -2.15035 0)
(273.679 -2.07886 0)
(278.791 -2.18446 0)
(283.04 -2.23364 0)
(286.383 -2.23709 0)
(288.927 -2.11377 0)
(290.907 -2.10708 0)
(292.287 -1.99784 0)
(293.034 -1.94417 0)
(293.471 -1.85719 0)
(293.702 -1.72504 0)
(293.778 -1.66814 0)
(293.87 -1.65108 0)
(293.984 -1.61222 -1.81345e-019)
(294.072 -1.55943 1.85809e-019)
(294.091 -1.49607 0)
(294.02 -1.41846 0)
(293.891 -1.31836 0)
(293.79 -1.25598 0)
(293.711 -1.2173 0)
(293.521 -1.20158 2.35188e-019)
(293.165 -1.19729 -2.6308e-019)
(292.712 -1.15177 0)
(292.25 -1.09514 0)
(291.851 -1.04664 0)
(291.539 -1.05609 0)
(291.282 -1.05153 0)
(291.037 -1.02773 0)
(290.716 -1.03531 0)
(290.318 -0.960359 0)
(289.823 -0.729142 0)
(0.000168989 -4.39902e-006 0)
(0.000974645 -2.15414e-005 0)
(0.00436661 -7.2089e-005 0)
(0.0183559 -0.0002049 0)
(0.0698504 -0.00043343 0)
(0.242605 -0.0005778 0)
(0.74081 0.000537275 0)
(1.99234 0.00760217 0)
(4.7246 0.0297301 0)
(9.92687 0.076189 0)
(18.4327 0.159791 0)
(30.3877 0.282062 0)
(45.0727 0.424678 0)
(61.2544 0.561782 0)
(77.948 0.697985 0)
(94.5399 0.819556 0)
(110.797 0.945196 0)
(126.628 1.07156 0)
(141.961 1.18262 0)
(156.804 1.28654 0)
(170.973 1.39965 0)
(184.63 1.56621 0)
(197.633 1.62599 0)
(209.858 1.685 0)
(221.4 1.77904 0)
(232.202 1.8972 0)
(242.126 1.99842 0)
(251.133 2.0589 0)
(259.248 2.09592 0)
(266.426 2.04388 0)
(272.518 2.1258 0)
(277.56 2.12551 0)
(281.735 2.25615 0)
(285.053 2.20086 0)
(287.552 2.12523 -7.51262e-020)
(289.441 1.96967 7.77543e-020)
(290.749 1.98042 0)
(291.441 1.81685 0)
(291.795 1.66982 0)
(291.969 1.68755 0)
(292.043 1.53526 8.97959e-020)
(292.184 1.34856 -9.19781e-020)
(292.408 1.17023 0)
(292.673 0.972388 0)
(292.933 0.752774 0)
(293.159 0.550066 0)
(293.359 0.412513 -1.04154e-019)
(293.589 0.296395 1.07181e-019)
(293.832 0.154768 0)
(293.96 0.0241115 0)
(293.916 -0.116383 0)
(293.749 -0.178576 0)
(293.535 -0.122951 0)
(293.354 0.0500999 0)
(293.236 0.337245 0)
(293.13 0.637814 0)
(292.971 0.905106 0)
(292.681 1.16676 0)
(292.227 1.64047 0)
(291.583 1.95681 0)
(0.000167819 -5.14804e-006 -2.68491e-021)
(0.000966159 -2.71451e-005 8.27745e-021)
(0.00431875 -0.000104816 -5.67094e-021)
(0.0181245 -0.000376967 0)
(0.0688603 -0.00122615 0)
(0.239023 -0.00376264 0)
(0.729666 -0.010591 0)
(1.96247 -0.0252247 -2.58092e-020)
(4.65523 -0.0539221 2.67171e-020)
(9.78943 -0.10718 2.67258e-020)
(18.1985 -0.190034 -2.81063e-020)
(30.042 -0.296733 -2.72752e-020)
(44.6236 -0.419603 2.91783e-020)
(60.73 -0.538412 0)
(77.3754 -0.662893 2.79638e-020)
(93.9431 -0.769163 -3.01037e-020)
(110.195 -0.883662 0)
(126.028 -0.993036 0)
(141.377 -1.08111 -5.81321e-020)
(156.253 -1.17562 3.59927e-021)
(170.487 -1.2859 6.28465e-020)
(184.194 -1.39716 0)
(197.227 -1.48164 0)
(209.541 -1.53453 6.16701e-020)
(221.205 -1.59906 -6.59614e-020)
(232.106 -1.6897 0)
(242.108 -1.79253 0)
(251.209 -1.87464 0)
(259.451 -1.89615 0)
(266.822 -1.94632 0)
(273.067 -1.82249 0)
(278.24 -1.98731 0)
(282.539 -1.96723 -7.40082e-020)
(285.939 -1.99519 7.64699e-020)
(288.548 -1.90462 -7.74965e-020)
(290.605 -1.90451 1.59937e-019)
(292.055 -1.78975 -8.25596e-020)
(292.845 -1.76555 0)
(293.329 -1.67397 -8.76949e-020)
(293.581 -1.56385 1.80518e-019)
(293.666 -1.51597 -9.26551e-020)
(293.8 -1.51172 0)
(293.997 -1.48727 9.68359e-020)
(294.212 -1.4495 -1.98388e-019)
(294.408 -1.40293 1.0177e-019)
(294.556 -1.34465 -1.04519e-019)
(294.663 -1.27509 1.07384e-019)
(294.794 -1.20565 0)
(294.961 -1.1689 0)
(295.037 -1.14783 0)
(294.95 -1.14758 -1.38134e-019)
(294.747 -1.16849 1.53281e-019)
(294.485 -1.15248 -1.68402e-019)
(294.224 -1.09383 1.82855e-019)
(293.982 -1.02328 0)
(293.731 -0.973471 0)
(293.449 -0.913805 0)
(293.081 -0.752111 0)
(292.548 -0.476982 0)
(291.799 -0.288999 0)
(0.00016692 -5.40953e-006 -2.77749e-021)
(0.000960376 -2.70863e-005 -2.85426e-021)
(0.00428986 -9.47836e-005 5.86648e-021)
(0.0180006 -0.000291029 0)
(0.0683906 -0.000731969 0)
(0.237495 -0.00146391 0)
(0.725524 -0.00210639 0)
(1.95293 0.00164335 -1.335e-020)
(4.63633 0.0177054 4.10486e-020)
(9.75698 0.054766 -7.26276e-022)
(18.1522 0.125651 -1.11025e-021)
(29.9857 0.235995 -5.79098e-020)
(44.5624 0.368574 1.74042e-021)
(60.661 0.497023 1.88595e-021)
(77.2953 0.619347 3.08735e-020)
(93.8424 0.72781 -2.91957e-020)
(110.062 0.84127 3.14156e-020)
(125.863 0.960452 -2.97704e-020)
(141.169 1.05244 3.19709e-020)
(155.989 1.16855 0)
(170.143 1.25257 0)
(183.789 1.43768 0)
(196.786 1.47513 0)
(209.02 1.51945 -6.38517e-020)
(220.577 1.61106 6.82796e-020)
(231.392 1.72793 0)
(241.337 1.81923 0)
(250.39 1.87387 0)
(258.569 1.90484 6.95992e-020)
(265.838 1.88817 -1.45018e-019)
(272.006 1.90057 1.83923e-021)
(277.107 1.97758 7.69041e-020)
(281.355 2.04162 0)
(284.755 2.00646 0)
(287.327 1.94352 8.03689e-020)
(289.288 1.84144 -8.32043e-020)
(290.676 1.79915 -8.51492e-020)
(291.422 1.6588 8.83348e-020)
(291.81 1.54769 0)
(291.997 1.53886 9.35619e-020)
(292.062 1.42048 -9.61066e-020)
(292.198 1.25233 0)
(292.445 1.0985 0)
(292.764 0.920166 1.02657e-019)
(293.109 0.709957 -1.05258e-019)
(293.445 0.496214 0)
(293.764 0.31894 0)
(294.108 0.228188 0)
(294.479 0.113086 1.18536e-019)
(294.758 -0.01292 -1.268e-019)
(294.869 -0.130038 0)
(294.85 -0.210115 0)
(294.771 -0.186972 -1.72197e-019)
(294.695 -0.0224252 1.87061e-019)
(294.652 0.235159 0)
(294.596 0.610042 -2.13352e-019)
(294.471 1.12251 2.22041e-023)
(294.206 1.62933 4.70995e-019)
(293.736 1.91647 -2.45631e-019)
(293.028 2.13442 2.55151e-019)
(0.000165839 -5.94791e-006 0)
(0.000952808 -3.0921e-005 0)
(0.00424815 -0.000116977 0)
(0.0178016 -0.000409709 0)
(0.0675448 -0.00129505 -1.28128e-020)
(0.234437 -0.00379703 1.31728e-020)
(0.71601 -0.0105143 0)
(1.92734 -0.0239422 0)
(4.57655 -0.0495823 0)
(9.63772 -0.0967897 0)
(17.9473 -0.169705 0)
(29.6803 -0.263716 0)
(44.161 -0.373861 0)
(60.188 -0.482869 0)
(76.775 -0.595286 0)
(93.2978 -0.686337 0)
(109.512 -0.789378 0)
(125.311 -0.884966 0)
(140.629 -0.96402 0)
(155.48 -1.04314 0)
(169.696 -1.16207 0)
(183.383 -1.24727 0)
(196.4 -1.32601 0)
(208.715 -1.36969 0)
(220.388 -1.42588 0)
(231.299 -1.50458 0)
(241.315 -1.58501 0)
(250.443 -1.65176 0)
(258.726 -1.68403 0)
(266.159 -1.75344 0)
(272.481 -1.6189 0)
(277.716 -1.74041 0)
(282.063 -1.74223 0)
(285.523 -1.75489 8.08203e-020)
(288.195 -1.70849 -1.66646e-019)
(290.31 -1.72746 8.58726e-020)
(291.821 -1.61452 8.79288e-020)
(292.654 -1.58615 -9.12344e-020)
(293.165 -1.5223 0)
(293.416 -1.40905 0)
(293.473 -1.36679 0)
(293.583 -1.36625 0)
(293.771 -1.35305 0)
(293.994 -1.33895 0)
(294.221 -1.31922 0)
(294.422 -1.28892 0)
(294.596 -1.26237 1.14652e-019)
(294.788 -1.2099 -1.1797e-019)
(295.018 -1.16179 1.22502e-019)
(295.181 -1.1316 -1.3128e-019)
(295.194 -1.12584 0)
(295.088 -1.14434 0)
(294.919 -1.12814 0)
(294.74 -1.07889 0)
(294.583 -1.01458 0)
(294.443 -0.88351 -2.21672e-019)
(294.276 -0.58436 2.33786e-019)
(293.988 -0.359671 0)
(293.53 -0.209577 0)
(292.874 0.0896894 0)
(0.000164908 -6.21875e-006 0)
(0.000946823 -3.14569e-005 0)
(0.00421811 -0.000112557 0)
(0.0176715 -0.000358564 0)
(0.0670468 -0.00096973 1.32537e-020)
(0.232795 -0.00217039 -1.36261e-020)
(0.711488 -0.0042962 0)
(1.91674 -0.00335861 0)
(4.55514 0.00725597 1.45717e-020)
(9.60034 0.0358513 -1.5182e-020)
(17.8929 0.0947517 -2.99397e-020)
(29.6129 0.193295 6.199e-020)
(44.0878 0.315663 -3.23117e-020)
(60.1079 0.437416 0)
(76.6863 0.54892 0)
(93.1911 0.644364 0)
(109.376 0.746572 -3.15653e-020)
(125.149 0.857154 6.58198e-020)
(140.428 0.931568 -3.42355e-020)
(155.227 1.06349 0)
(169.365 1.11833 0)
(183.003 1.317 0)
(195.996 1.33921 0)
(208.232 1.37156 0)
(219.798 1.45929 0)
(230.634 1.57039 0)
(240.607 1.65673 0)
(249.696 1.70412 -7.30763e-020)
(257.919 1.72332 7.70287e-020)
(265.263 1.72133 0)
(271.507 1.68569 0)
(276.677 1.82029 0)
(281.003 1.84446 0)
(284.482 1.82326 0)
(287.12 1.76913 0)
(289.152 1.71535 0)
(290.618 1.62729 0)
(291.42 1.52951 0)
(291.848 1.46614 -9.72735e-020)
(292.056 1.40511 1.00181e-019)
(292.11 1.29944 0)
(292.223 1.14757 0)
(292.456 1.00228 1.07209e-019)
(292.77 0.831958 -1.09674e-019)
(293.122 0.626421 0)
(293.472 0.406421 1.15446e-019)
(293.804 0.208328 -1.18594e-019)
(294.152 0.0893266 0)
(294.526 -0.0166203 0)
(294.82 -0.143043 0)
(294.945 -0.238461 0)
(294.928 -0.28991 -1.67021e-019)
(294.836 -0.229034 1.83542e-019)
(294.729 -0.0588482 1.99329e-019)
(294.653 0.237062 -8.21876e-023)
(294.59 0.688245 -2.27723e-019)
(294.465 1.16489 2.40254e-019)
(294.203 1.44454 -2.51555e-019)
(293.794 1.66658 2.62066e-019)
(293.189 2.06981 -5.45742e-019)
(0.000163894 -6.61583e-006 0)
(0.00093993 -3.41166e-005 3.15922e-021)
(0.00418096 -0.000127568 -3.24661e-021)
(0.0174968 -0.00043944 0)
(0.0663117 -0.00136352 0)
(0.230145 -0.00385167 0)
(0.703265 -0.0105454 0)
(1.89462 -0.0229947 0)
(4.50326 -0.0460946 1.50749e-020)
(9.49631 -0.0878671 -1.57041e-020)
(17.713 -0.151819 0)
(29.3424 -0.23376 0)
(43.7284 -0.331445 3.15236e-020)
(59.6805 -0.430459 -3.386e-020)
(76.2118 -0.532792 -3.2066e-020)
(92.6923 -0.611019 2.15068e-021)
(108.871 -0.703176 3.48102e-020)
(124.638 -0.783772 0)
(139.929 -0.856522 3.33382e-020)
(154.756 -0.924453 -3.58087e-020)
(168.953 -1.05179 0)
(182.623 -1.10224 3.46574e-020)
(195.624 -1.1833 -7.18736e-020)
(207.938 -1.2221 3.71903e-020)
(219.616 -1.26814 -3.60763e-020)
(230.539 -1.33247 3.84612e-020)
(240.572 -1.40155 -7.45761e-020)
(249.723 -1.4573 2.86987e-021)
(258.038 -1.50111 7.96333e-020)
(265.52 -1.5546 0)
(271.919 -1.44444 0)
(277.218 -1.48949 0)
(281.613 -1.52693 -8.48492e-020)
(285.135 -1.5373 8.76571e-020)
(287.866 -1.52563 0)
(290.033 -1.53466 -9.12615e-020)
(291.606 -1.44984 9.45257e-020)
(292.499 -1.43273 -9.73059e-020)
(293.045 -1.3765 1.57589e-022)
(293.315 -1.24928 1.01091e-022)
(293.375 -1.22185 3.51394e-023)
(293.48 -1.22928 5.07312e-025)
(293.671 -1.22392 1.10668e-019)
(293.91 -1.22277 -1.13214e-019)
(294.168 -1.23044 1.16072e-019)
(294.418 -1.24166 0)
(294.649 -1.23911 0)
(294.891 -1.17297 0)
(295.164 -1.09511 0)
(295.379 -1.07174 0)
(295.441 -1.02211 0)
(295.358 -1.02665 -1.72888e-019)
(295.177 -1.03028 3.80184e-019)
(294.948 -1.0116 -3.45937e-023)
(294.725 -0.93743 -2.22102e-019)
(294.517 -0.770513 0)
(294.273 -0.567078 0)
(293.93 -0.367591 0)
(293.506 -0.0732615 0)
(292.912 0.301545 -2.82049e-019)
(0.000162966 -6.86577e-006 0)
(0.00093398 -3.48914e-005 -3.26774e-021)
(0.00415102 -0.000126396 1.00742e-020)
(0.0173663 -0.000411036 -6.90203e-021)
(0.0658078 -0.00115667 0)
(0.228465 -0.00272736 1.45614e-020)
(0.698578 -0.00607306 -2.99188e-020)
(1.88345 -0.00748321 1.5398e-020)
(4.48036 -0.00165459 1.55937e-020)
(9.45577 0.0194245 -1.62437e-020)
(17.653 0.0672058 -1.60238e-020)
(29.267 0.154228 4.93453e-020)
(43.6462 0.266186 -6.71902e-020)
(59.5922 0.381053 3.50276e-020)
(76.1179 0.483624 0)
(92.5828 0.568398 0)
(108.735 0.659889 0)
(124.48 0.762438 -3.41404e-020)
(139.735 0.821795 3.66538e-020)
(154.513 0.974754 -3.49281e-020)
(168.636 0.997144 3.72839e-020)
(182.268 1.20298 3.5862e-020)
(195.257 1.21636 -3.81932e-020)
(207.492 1.23344 0)
(219.065 1.31686 0)
(229.922 1.42301 0)
(239.925 1.50351 0)
(249.046 1.54457 0)
(257.303 1.5557 0)
(264.712 1.55463 -8.18089e-020)
(271.032 1.48585 8.63121e-020)
(276.27 1.63215 -8.6369e-020)
(280.669 1.67104 8.94617e-020)
(284.22 1.65092 0)
(286.921 1.59177 9.19526e-020)
(289.018 1.57303 -9.52144e-020)
(290.558 1.47056 9.73649e-020)
(291.422 1.39448 -1.01038e-019)
(291.905 1.35394 0)
(292.154 1.2699 -1.0708e-019)
(292.224 1.16994 3.65372e-023)
(292.351 1.03608 -1.96285e-024)
(292.611 0.896076 1.14632e-019)
(292.97 0.72926 0)
(293.386 0.529977 0)
(293.82 0.318888 -1.23239e-019)
(294.252 0.126405 1.26578e-019)
(294.699 -0.00170665 0)
(295.164 -0.0881371 1.34653e-019)
(295.559 -0.221077 -2.85368e-019)
(295.775 -0.265533 2.83014e-023)
(295.817 -0.296069 1.75977e-019)
(295.744 -0.250977 0)
(295.605 -0.0881138 0)
(295.448 0.214608 2.27243e-019)
(295.265 0.595528 -4.83609e-019)
(294.995 0.927136 1.25186e-022)
(294.593 1.37375 5.35136e-019)
(294.078 1.80744 -2.78844e-019)
(293.406 2.08111 0)
(0.000162007 -7.16525e-006 0)
(0.000927619 -3.67711e-005 -3.37989e-021)
(0.00411739 -0.0001366 3.47339e-021)
(0.0172104 -0.000465817 -7.13811e-021)
(0.0651588 -0.00142901 7.33643e-021)
(0.226134 -0.00392197 0)
(0.691384 -0.0106511 1.54489e-020)
(1.86414 -0.0223558 -3.17395e-020)
(4.43501 -0.0434039 1.6364e-020)
(9.36449 -0.0803938 1.63854e-020)
(17.4943 -0.136397 -1.72186e-020)
(29.0268 -0.206972 0)
(43.3238 -0.292536 0)
(59.2052 -0.381243 0)
(75.684 -0.473918 0)
(92.1245 -0.542745 3.4645e-020)
(108.27 -0.624741 -7.22402e-020)
(124.007 -0.689869 7.29291e-020)
(139.272 -0.760947 -7.36194e-020)
(154.077 -0.809493 3.83409e-020)
(168.256 -0.954375 3.64331e-020)
(181.911 -0.964225 -3.92085e-020)
(194.896 -1.04589 0)
(207.208 -1.08744 0)
(218.89 -1.12518 0)
(229.824 -1.17487 0)
(239.873 -1.2345 0)
(249.044 -1.28559 0)
(257.386 -1.33483 4.12133e-020)
(264.911 -1.36649 -8.58588e-020)
(271.384 -1.29689 4.46239e-020)
(276.748 -1.28098 0)
(281.187 -1.31739 0)
(284.767 -1.34197 -9.25966e-020)
(287.556 -1.35808 9.53068e-022)
(289.771 -1.35078 6.94899e-022)
(291.406 -1.28769 5.39207e-022)
(292.367 -1.29855 3.46116e-022)
(292.958 -1.21385 1.07636e-019)
(293.269 -1.09631 -1.10618e-019)
(293.366 -1.09856 2.27266e-019)
(293.507 -1.11381 -1.16126e-019)
(293.751 -1.1085 0)
(294.069 -1.11183 0)
(294.435 -1.12421 1.24009e-019)
(294.824 -1.15198 -1.2728e-019)
(295.219 -1.177 0)
(295.637 -1.15873 -1.34446e-019)
(296.085 -1.11876 2.77957e-019)
(296.492 -1.11331 -1.46851e-019)
(296.748 -1.05956 1.6225e-019)
(296.831 -1.0505 -1.80819e-019)
(296.779 -1.05179 -1.99609e-019)
(296.624 -0.998464 2.17652e-019)
(296.411 -0.880028 2.34744e-019)
(296.148 -0.720854 -2.50091e-019)
(295.821 -0.532982 0)
(295.365 -0.133527 0)
(294.77 0.39588 0)
(294.018 0.843606 0)
(0.000161103 -7.38146e-006 0)
(0.000921843 -3.75818e-005 0)
(0.00408831 -0.000137131 0)
(0.017083 -0.000451568 0)
(0.0646636 -0.00130239 0)
(0.224468 -0.0031623 0)
(0.686682 -0.00748759 0)
(1.85279 -0.0108486 0)
(4.41141 -0.00914792 0)
(9.32221 0.00531101 0)
(17.4308 0.0429716 0)
(28.9459 0.118858 0)
(43.2351 0.220332 0)
(59.1113 0.327955 0)
(75.5871 0.422026 0)
(92.0143 0.499382 0)
(108.136 0.580541 0)
(123.855 0.675331 0)
(139.087 0.721927 0)
(153.844 0.886954 0)
(167.955 0.886356 0)
(181.581 1.09353 0)
(194.563 1.09412 -3.87904e-020)
(206.798 1.10264 4.1207e-020)
(218.38 1.18256 0)
(229.254 1.28444 0)
(239.281 1.36079 0)
(248.431 1.39708 0)
(256.724 1.3911 0)
(264.191 1.38898 0)
(270.583 1.30869 0)
(275.886 1.43955 0)
(280.348 1.50994 -4.70972e-020)
(283.963 1.48873 4.86338e-020)
(286.726 1.42688 0)
(288.888 1.43062 0)
(290.5 1.32528 0)
(291.436 1.24287 0)
(291.987 1.21161 0)
(292.291 1.12741 0)
(292.405 1.03758 0)
(292.585 0.915012 1.20298e-019)
(292.917 0.782608 -1.22575e-019)
(293.373 0.612882 0)
(293.916 0.408496 0)
(294.505 0.196676 0)
(295.118 0.0147678 0)
(295.761 -0.128672 -1.38984e-019)
(296.428 -0.239946 1.43402e-019)
(297.039 -0.330928 0)
(297.476 -0.335088 0)
(297.723 -0.33958 0)
(297.831 -0.290913 0)
(297.831 -0.108288 0)
(297.75 0.199767 0)
(297.572 0.582978 0)
(297.269 1.01945 0)
(296.798 1.48956 0)
(296.132 2.08676 0)
(295.281 2.45414 0)
(0.000160195 -7.61053e-006 0)
(0.000915927 -3.89343e-005 0)
(0.00405753 -0.000144133 3.71548e-021)
(0.0169421 -0.000488618 -3.81835e-021)
(0.0640831 -0.00148927 0)
(0.222393 -0.00400099 0)
(0.680315 -0.0107987 0)
(1.83576 -0.021978 0)
(4.37145 -0.0414162 -1.72589e-020)
(9.2416 -0.0742852 3.55062e-020)
(17.2902 -0.123282 -1.84204e-020)
(28.7318 -0.183305 0)
(42.9453 -0.257131 0)
(58.7601 -0.335351 0)
(75.1893 -0.418656 0)
(91.592 -0.480715 -3.70853e-020)
(107.707 -0.554067 2.44436e-021)
(123.414 -0.603424 4.02432e-020)
(138.658 -0.675234 0)
(153.44 -0.702385 0)
(167.603 -0.863742 3.90028e-020)
(181.242 -0.833392 -4.19752e-020)
(194.21 -0.917023 0)
(206.523 -0.963645 0)
(218.211 -0.992268 0)
(229.152 -1.0283 0)
(239.213 -1.07821 4.27587e-020)
(248.402 -1.12465 -1.65579e-021)
(256.773 -1.18335 -4.56228e-020)
(264.341 -1.20388 0)
(270.88 -1.17987 0)
(276.303 -1.12383 0)
(280.782 -1.11735 0)
(284.412 -1.16307 4.954e-020)
(287.261 -1.20753 -5.23573e-022)
(289.525 -1.18476 -1.04815e-019)
(291.22 -1.13479 5.40709e-020)
(292.253 -1.18818 0)
(292.897 -1.06958 5.74712e-020)
(293.262 -0.960238 -5.92294e-020)
(293.414 -1.00407 -1.21542e-019)
(293.61 -1.02881 1.24222e-019)
(293.933 -1.02105 0)
(294.36 -1.02684 0)
(294.871 -1.06007 0)
(295.44 -1.10172 0)
(296.043 -1.12686 0)
(296.682 -1.1602 0)
(297.364 -1.21082 -1.48069e-019)
(298.025 -1.23072 2.52155e-023)
(298.538 -1.16173 3.3807e-019)
(298.865 -1.12823 -1.97433e-024)
(299.043 -1.07391 -2.09016e-019)
(299.087 -0.969335 0)
(299.02 -0.803799 0)
(298.85 -0.57774 -2.65021e-019)
(298.559 -0.213566 2.81035e-019)
(298.099 0.252416 0)
(297.409 0.916501 3.07404e-019)
(296.5 1.64011 -3.20965e-019)
(0.000159326 -7.78987e-006 0)
(0.000910399 -3.96772e-005 0)
(0.00402971 -0.00014542 -3.84268e-021)
(0.0168198 -0.000482723 1.18463e-020)
(0.0636056 -0.0014152 -3.06332e-024)
(0.220773 -0.00349964 -1.66731e-020)
(0.675704 -0.00859913 1.71191e-020)
(1.8245 -0.0135723 -8.81008e-021)
(4.34776 -0.0153878 0)
(9.1987 -0.00671477 0)
(17.2249 0.0218427 1.83514e-020)
(28.6477 0.0870884 -1.94617e-020)
(42.8525 0.178189 1.8679e-020)
(58.6627 0.278204 -2.00562e-020)
(75.0913 0.364203 0)
(91.483 0.436477 0)
(107.576 0.508315 0)
(123.27 0.593316 0)
(138.481 0.630815 0)
(153.218 0.811224 -4.00329e-020)
(167.318 0.780461 4.27206e-020)
(180.938 0.990353 0)
(193.91 0.980578 0)
(206.148 0.98154 -4.1947e-020)
(217.74 1.05753 4.48475e-020)
(228.629 1.15479 0)
(238.674 1.22814 -4.42746e-020)
(247.849 1.26118 9.13612e-020)
(256.18 1.2357 -4.72268e-020)
(263.702 1.23273 0)
(270.162 1.15928 0)
(275.526 1.25718 -4.94463e-020)
(280.037 1.35718 5.1248e-020)
(283.708 1.33489 5.13142e-020)
(286.533 1.25827 -5.4557e-022)
(288.76 1.2849 -5.44662e-020)
(290.437 1.17866 5.56681e-020)
(291.446 1.08256 -2.06485e-022)
(292.067 1.07192 -1.02035e-022)
(292.419 0.984472 -6.12538e-023)
(292.584 0.901237 -1.25833e-019)
(292.825 0.785619 1.28588e-019)
(293.237 0.655706 5.43642e-025)
(293.797 0.477231 -1.3379e-019)
(294.473 0.258312 6.85137e-020)
(295.226 0.0287656 0)
(296.021 -0.165986 -1.44423e-019)
(296.852 -0.322522 2.96821e-019)
(297.719 -0.467426 -1.52881e-019)
(298.557 -0.5191 0)
(299.225 -0.489053 1.72241e-019)
(299.696 -0.46235 -1.92111e-019)
(300.024 -0.345782 0)
(300.223 -0.143644 0)
(300.306 0.17988 -2.54067e-019)
(300.253 0.588518 5.44505e-019)
(300.027 1.08163 -2.89227e-019)
(299.599 1.62608 0)
(298.928 2.21737 0)
(297.981 2.96376 0)
(0.000158467 -7.96586e-006 0)
(0.000904877 -4.06622e-005 0)
(0.00400133 -0.000150275 3.97413e-021)
(0.0166912 -0.000507818 -4.08416e-021)
(0.0630808 -0.00154277 8.39118e-021)
(0.218907 -0.00408268 -8.62673e-021)
(0.670011 -0.0109697 0)
(1.80935 -0.0217987 0)
(4.31226 -0.0400184 1.84635e-020)
(9.12703 -0.0693902 -1.92247e-020)
(17.0997 -0.112278 0)
(28.4561 -0.162614 1.91642e-020)
(42.5913 -0.225103 -2.04757e-020)
(58.3434 -0.292797 1.94912e-020)
(74.7259 -0.366924 -2.09624e-020)
(91.0929 -0.423054 0)
(107.178 -0.489893 0)
(122.859 -0.524054 4.04843e-020)
(138.082 -0.599048 -8.43478e-020)
(152.842 -0.595997 2.51091e-021)
(166.989 -0.775669 4.41967e-020)
(180.615 -0.707873 4.25317e-020)
(193.566 -0.795613 -4.52613e-020)
(205.88 -0.847075 0)
(217.574 -0.86876 0)
(228.52 -0.891826 4.51486e-020)
(238.589 -0.930998 -4.76858e-020)
(247.795 -0.97238 0)
(256.195 -1.03751 0)
(263.805 -1.05562 -4.84369e-020)
(270.405 -1.07004 1.00933e-019)
(275.883 -0.989293 -5.222e-020)
(280.397 -0.929202 0)
(284.072 -0.993978 0)
(286.978 -1.05767 0)
(289.29 -1.02729 5.58536e-020)
(291.041 -0.986354 -3.32954e-022)
(292.141 -1.07351 -2.21216e-022)
(292.835 -0.94136 -6.1584e-020)
(293.248 -0.827361 0)
(293.447 -0.913761 -6.50005e-020)
(293.69 -0.942536 6.64102e-020)
(294.077 -0.939505 -6.76452e-020)
(294.591 -0.965804 1.38205e-019)
(295.217 -1.02482 1.89427e-024)
(295.928 -1.10143 -7.0037e-025)
(296.691 -1.17384 -7.46054e-020)
(297.496 -1.24119 0)
(298.355 -1.29499 -7.89575e-020)