/*--------------------------------*- C++ -*----------------------------------*\
| =========                 |                                                 |
| \\      /  F ield         | OpenFOAM: The Open Source CFD Toolbox           |
|  \\    /   O peration     | Version:  5.x                                   |
|   \\  /    A nd           | Web:      www.OpenFOAM.org                      |
|    \\/     M anipulation  |                                                 |
\*---------------------------------------------------------------------------*/
/*   Windows 32 and 64 bit porting by blueCAPE: http://www.bluecape.com.pt   *\
|  Based on Windows porting (2.0.x v4) by Symscape: http://www.symscape.com   |
\*---------------------------------------------------------------------------*/
FoamFile
{
    version     2.0;
    format      ascii;
    class       volScalarField;
    location    "0.007";
    object      p;
}
// * * * * * * * * * * * * * * * * * * * * * * * * * * * * * * * * * * * * * //

dimensions      [1 -1 -2 0 0 0 0];

internalField   nonuniform List<scalar> 
1000
(
100000
100000
100000
100000
100000
100000
100000
100000
100000
100000
100000
100000
100000
100000
100000
100000
100000
100000
100000
100000
100000
100000
100000
100000
100000
100000
100000
100000
100000
100000
100000
100000
100000
100000
100000
100000
100000
100000
100000
100000
100000
100000
100000
100000
100000
100000
100000
100000
100000
100000
100000
100000
100000
100000
100000
100000
100000
100000
100000
100000
100000
100000
100000
100000
100000
100000
99999.9
99999.9
99999.8
99999.6
99999.2
99998.5
99997.4
99995.5
99992.2
99986.9
99978.3
99964.7
99943.8
99912.1
99865.3
99797.9
99703.1
99573.4
99400.5
99176.1
98892.7
98544.4
98127.2
97639.7
97083.4
96461.8
95780.6
95046.8
94268
93451.6
92604.4
91732.5
90841.2
89934.9
89017.3
88091.4
87159.9
86224.7
85287.7
84350.2
83413.4
82478.3
81545.6
80616
79690
78768.1
77850.7
76938
76030.4
75127.9
74231
73339.5
72453.8
71573.9
70699.9
69831.9
68969.9
68114.1
67264.4
66420.8
65583.6
64752.6
63927.9
63109.5
62297.5
61491.9
60692.7
59899.9
59113.5
58333.5
57560
56792.9
56032.4
55278.3
54530.7
53789.6
53054.9
52326.8
51605.2
50890.1
50181.5
49479.5
48783.8
48094.8
47412.2
46736.2
46066.5
45403.5
44746.8
44096.7
43453
42815.9
42185.1
41560.7
40942.8
40331.5
39726.2
39127.7
38535.5
37949.5
37370.1
36797
36230.3
35669.9
35116
34568.5
34027.2
33492.4
32964
32442
31926.4
31417
30914.3
30417.8
29927.8
29444.2
28966.8
28496.3
28032
27574.3
27122.9
26678.2
26240.3
25808.7
25384.1
24966
24554.9
24150.8
23753.5
23363.6
22980.5
22605.3
22237.3
21877.3
21525
21180.9
20845.3
20518.1
20200.3
19891.4
19592.6
19303.7
19025.5
18758.6
18503.3
18260.9
18031.5
17816.6
17616.7
17433.2
17267.1
17119.6
16992
16885.8
16800
16739.7
16699.2
16678.3
16674.9
16685.5
16707
16739.7
16784.7
16843.3
16918.1
17011.5
17126.8
17268
17439.4
17650.5
17908.4
18208.8
18540.4
18887.3
19232.5
19560.7
19860.8
20126.2
20355.1
20548.6
20709.6
20842.1
20949.7
21036.5
21106.6
21164.1
21212
21252.4
21286.6
21315.4
21339.1
21357.8
21371.5
21380
21383.8
21383.7
21382.4
21379.7
21375.2
21368.6
21359.6
21348
21331.1
21307.3
21284.9
21295.3
21351.6
21504
21850.6
22588.4
24101.8
26883.2
29806.4
31099
31041.2
30886
30611.7
30160.5
30074.9
30090.1
30125.8
30154.9
30186.9
30198.3
30199
30196.3
30187
30158.8
30112.5
30056.5
29992
29929.4
29855.6
29793.5
100000
100000
100000
100000
100000
100000
100000
100000
100000
100000
100000
100000
100000
100000
100000
100000
100000
100000
100000
100000
100000
100000
100000
100000
100000
100000
100000
100000
100000
100000
100000
100000
100000
100000
100000
100000
100000
100000
100000
100000
100000
100000
100000
100000
100000
100000
100000
100000
100000
100000
100000
100000
100000
100000
100000
100000
100000
100000
100000
100000
100000
100000
100000
100000
100000
100000
100000
100000
100000
100000
100000
100000
100000
100001
100001
100002
100002
100004
100006
100008
100012
100016
100021
100026
100030
100029
100020
99998.4
99958.2
99889.8
99782.9
99626.6
99411
99128.6
98776
98353.5
97864.7
97315.6
96713.6
96066.4
95381.5
94665.9
93925.7
93166.1
92391.4
91605.1
90810.2
90008.9
89203.3
88394.7
87584.5
86773.8
85963.4
85153.9
84346
83540.1
82736.7
81936.3
81139
80345.2
79555.3
78769.3
77987.5
77210.2
76437.4
75669.4
74906.3
74148.2
73395.2
72647.6
71905.4
71168.6
70437.4
69711.9
68992
68278
67569.8
66867.5
66171.1
65480.7
64796.2
64117.8
63445.4
62779.1
62118.8
61464.6
60816.4
60174.3
59538.3
58908.4
58284.4
57666.5
57054.6
56448.8
55848.9
55255.1
54667.2
54085.4
53509.2
52939.4
52375.1
51817.4
51264.8
50718.6
50178.2
49643.5
49115
48592.2
48075.3
47564.5
47059.5
46560.6
46067.7
45580.8
45100
44625.4
44157
43694.9
43239.3
42790.2
42347.7
41912
41483.3
41061.7
40647.4
40240.7
39841.9
39451.1
39068.8
38695.3
38331
37976.3
37631.6
37297.5
36974.5
36663.1
36363.8
36077.4
35804.2
35545.1
35300.3
35070.5
34855.9
34656.9
34473.7
34306.2
34154.1
34017.2
33894.7
33785.9
33689.9
33605.3
33531.1
33466
33408.5
33357.6
33311.9
33270.6
33232.7
33197.4
33164.4
33133
33103.2
33074.8
33047.6
33021.7
32997.2
32974.8
32955.5
32940.3
32930.2
32921
32909.7
32896.5
32881.6
32861.9
32833.1
32788.2
32715.8
32604.4
32498.1
32406.4
32328.2
32260.2
32199.5
32144.3
32093.6
32046.8
32003.7
31964.2
31928
31894.6
31863.8
31835.1
31808.2
31782.9
31758.9
31736.1
31714.4
31693.8
31674.5
31655.9
31638.3
31621.7
31605.9
31591.3
31578.5
31568.4
31562.1
31557
31550.6
31543
31534.2
31524.1
31510.7
31491
31459.1
31404
31312.2
31204.4
31098.9
30998.7
30913.4
30837.3
30774.9
30739.3
30644
30596.4
30549.6
30485.2
30405.1
30308
30193.4
30064.2
29924.8
29781.1
29638.2
29498.2
29360.1
29237.1
29043.4
29004.6
28974
28965.5
28970.6
28973.9
28980.4
28982.4
28983.1
28983
28979.7
28977.4
28971.6
28964.6
28956.7
28948.3
28939.4
28930
28920.4
28910.5
28900.3
28890
28879.5
28868.9
28858.3
28847.6
28837
28826.5
28816
28805.7
28795.5
28785.6
28775.8
28766.3
28757
28748
28739.2
28730.7
28722.5
28714.6
28706.9
28699.6
28692.5
28685.7
28679.2
28673
28667.1
28661.4
28656.1
28650.9
28646.2
28641.6
28637.4
28633.5
28630
28626.6
28623.7
28621
28618.8
28616.5
28614.8
28613.2
28612.1
28611.3
28610.9
28610.8
28610.9
28611.5
28611.6
28612.5
28613.8
28615.6
28617.8
28620.6
28623.8
28627.5
28631.6
28636.1
28641.1
28646.5
28652.5
28659
28666
28673.6
28681.9
28690.8
28700.4
28710.8
28722
28734
28746.8
28760.5
28775.1
28790.7
28807.1
28824.5
28842.8
28862.1
28882.1
28903.2
29511.2
29483.8
29408.4
29323.3
29264.5
29218.8
29171
29118.4
29063.7
29008.2
28951.7
28894.2
28835.9
28776.2
28716.2
28655.3
28594.1
28532.4
28469.7
28405.7
28337.2
28282.7
28212.7
28142.8
28072.3
27998.9
27922.3
27842.5
27759.4
27672.8
27582.9
27489.6
27393.3
27294.1
27192.1
27087.6
26980.5
26871
26759.3
26645.4
26529.4
26411
26290.7
26168.9
26044.5
25916.4
25784.6
25649.2
25509.9
25366.5
25219.2
25068
24912.9
24753.7
24589.9
24421.1
24246.9
24067.1
23881.2
23688.9
23490
23284.3
23071.5
22850.9
22621.1
22378.7
22117
21823.8
21478.1
21049.5
20499.3
19789.8
18901.4
17851.9
16702.9
15541.7
14449.2
13473.9
12628.5
11905.2
11290.9
10777.9
10393.4
10192.2
10101.3
10050.1
10019.7
10006.1
10001.6
10000.4
10000.1
10000
10000
10000
10000
10000
10000
10000
10000
10000
10000
10000
10000
10000
10000
10000
10000
10000
10000
10000
10000
10000
10000
10000
10000
10000
10000
10000
10000
10000
10000
10000
10000
10000
10000
10000
10000
10000
10000
10000
10000
10000
10000
10000
10000
10000
10000
10000
10000
10000
10000
10000
10000
10000
10000
10000
10000
10000
10000
10000
28976.4
29034.1
29085.3
29146
29213.7
29282.2
29347.4
29407.1
29460.7
29508.6
29551.8
29591
29627.3
29661
29692.7
29722.6
29750.8
29777.6
29803.1
29827.8
29851.9
29875.9
29900.1
29924.8
29950
29975.3
30000.2
30024.2
30046.7
30067.4
30086.3
30103.2
30118.7
30132.5
30145.3
30160.8
30172.7
30185.8
30200
30215.5
30232.8
30253.1
30277.5
30297.1
30321.6
30343.9
30364.8
30385.1
30405.2
30425.4
30445.5
30466.2
30487.5
30509.7
30533.1
30557.9
30583.9
30610.6
30637.8
30665.2
30693
30721.6
30751.8
30783.9
30817.9
30853.5
30890.5
30928.6
30967.6
31007
31045.7
31082.1
31111
31127.1
31135.3
31143.5
31150.4
31155.8
31156.3
31138.7
31087.3
30969.9
30706
30111.4
28545.7
24117.7
16395.3
12085.8
10505.2
10101.6
10019.3
10003.6
10000.7
10000.1
10000
10000
10000
10000
10000
10000
10000
10000
10000
10000
10000
10000
10000
10000
10000
10000
10000
10000
10000
10000
10000
10000
10000
10000
10000
10000
10000
10000
10000
10000
10000
10000
10000
10000
10000
10000
10000
10000
10000
10000
10000
10000
10000
10000
10000
10000
10000
10000
10000
10000
10000
10000
10000
10000
10000
10000
)
;

boundaryField
{
    inlet
    {
        type            zeroGradient;
    }
    outlet
    {
        type            zeroGradient;
    }
    bottom
    {
        type            symmetryPlane;
    }
    top
    {
        type            symmetryPlane;
    }
    obstacle
    {
        type            zeroGradient;
    }
    defaultFaces
    {
        type            empty;
    }
}


// ************************************************************************* //
