/*--------------------------------*- C++ -*----------------------------------*\
| =========                 |                                                 |
| \\      /  F ield         | OpenFOAM: The Open Source CFD Toolbox           |
|  \\    /   O peration     | Version:  5.x                                   |
|   \\  /    A nd           | Web:      www.OpenFOAM.org                      |
|    \\/     M anipulation  |                                                 |
\*---------------------------------------------------------------------------*/
/*   Windows 32 and 64 bit porting by blueCAPE: http://www.bluecape.com.pt   *\
|  Based on Windows porting (2.0.x v4) by Symscape: http://www.symscape.com   |
\*---------------------------------------------------------------------------*/
FoamFile
{
    version     2.0;
    format      ascii;
    class       surfaceScalarField;
    location    "0.007";
    object      phi;
}
// * * * * * * * * * * * * * * * * * * * * * * * * * * * * * * * * * * * * * //

dimensions      [1 0 -1 0 0 0 0];

internalField   nonuniform List<scalar> 
1447
(
4.44089e-012
2.10179e-013
4.44089e-012
2.03698e-013
4.50484e-012
1.98924e-013
3.74456e-012
1.88662e-013
4.02878e-012
1.94837e-013
3.38929e-012
1.79065e-013
3.42482e-012
1.8039e-013
3.87956e-012
1.73285e-013
3.41061e-012
1.71266e-013
3.54561e-012
1.67651e-013
3.45324e-012
1.59726e-013
3.06244e-012
1.66311e-013
2.51532e-012
1.45974e-013
2.11031e-012
1.53856e-013
2.05347e-012
1.45356e-013
2.12452e-012
1.39236e-013
1.97531e-012
1.37543e-013
1.76215e-012
1.41408e-013
1.49925e-012
1.38813e-013
1.00897e-012
1.33941e-013
1.10845e-012
1.27648e-013
9.37916e-013
1.34788e-013
1.23634e-012
1.20855e-013
1.1795e-012
1.25899e-013
5.40012e-013
1.20397e-013
-1.20792e-013
1.19585e-013
1.06581e-013
1.20494e-013
3.33955e-013
1.15553e-013
-3.69482e-013
1.27925e-013
-1.03029e-012
1.06221e-013
-9.87654e-013
1.16886e-013
-6.39488e-013
1.13264e-013
-4.1922e-013
1.10661e-013
-7.81597e-014
1.18343e-013
-4.76064e-013
1.07706e-013
-3.48166e-013
1.19182e-013
2.84217e-014
1.01773e-013
4.90274e-013
1.12695e-013
1.01608e-012
1.06415e-013
9.73444e-013
1.02342e-013
1.35714e-012
9.80813e-014
1.91847e-012
9.7207e-014
3.29692e-012
9.15865e-014
6.10356e-012
9.61245e-014
1.36282e-011
8.22536e-014
3.25286e-011
1.1114e-013
7.72573e-011
1.34504e-013
1.8273e-010
2.52569e-013
4.28933e-010
5.07448e-013
9.97218e-010
1.13277e-012
2.29814e-009
2.58998e-012
5.24503e-009
5.97158e-012
1.18495e-008
1.37614e-011
2.64922e-008
3.14144e-011
5.86025e-008
7.11079e-011
1.28235e-007
1.59235e-010
2.77532e-007
3.52737e-010
5.93939e-007
7.72664e-010
1.25661e-006
1.67319e-009
2.62781e-006
3.581e-009
5.43027e-006
7.57307e-009
1.10861e-005
1.58213e-008
2.23538e-005
3.26441e-008
4.45068e-005
6.65037e-008
8.74742e-005
1.33734e-007
0.000169661
2.6538e-007
0.000324638
5.19503e-007
0.000612609
1.0029e-006
0.00113968
1.90864e-006
0.00208946
3.57953e-006
0.00377368
6.61286e-006
0.00671102
1.2029e-005
0.0117465
2.15351e-005
0.0202262
3.79253e-005
0.0342437
6.56673e-005
0.0569731
0.000111728
0.0930955
0.000186685
0.149311
0.000306136
0.234902
0.00049237
0.362273
0.00077615
0.547348
0.00119834
0.809679
0.00181097
1.17207
0.00267718
1.65957
0.00386959
2.29787
0.00546672
3.11102
0.00754763
4.11895
0.0101853
5.33519
0.0134382
6.76516
0.0173421
8.40552
0.0219142
10.2447
0.0271528
12.264
0.0330391
14.4395
0.0395402
16.7441
0.0466135
19.1508
0.0542092
21.6343
0.0622735
24.172
0.0707535
26.7444
0.0795984
29.3351
0.0887602
31.9304
0.098194
34.5191
0.107859
37.092
0.11772
39.6417
0.127744
42.1624
0.137904
44.6492
0.148177
47.0983
0.15854
49.5068
0.168978
51.8722
0.179475
54.1927
0.190019
56.4668
0.200598
58.6934
0.211204
60.8718
0.221829
63.0011
0.232466
65.0812
0.24311
67.1115
0.253754
69.092
0.264396
71.0227
0.27503
72.9034
0.285653
74.7344
0.296262
76.5156
0.306853
78.2474
0.317424
79.9299
0.327971
81.5633
0.338493
83.1479
0.348985
84.684
0.359446
86.172
0.369873
87.612
0.380263
89.0045
0.390612
90.3499
0.400919
91.6484
0.411181
92.9004
0.421394
94.1064
0.431556
95.2667
0.441664
96.3818
0.451714
97.4519
0.461705
98.4777
0.471632
99.4594
0.481494
100.397
0.491287
101.292
0.501007
102.145
0.510653
102.955
0.520222
103.723
0.529709
104.45
0.539113
105.136
0.548432
105.781
0.557657
106.389
0.566804
106.951
0.575822
107.485
0.584821
107.964
0.593559
108.426
0.602494
108.832
0.610826
109.209
0.619787
109.56
0.627699
109.843
0.636483
110.136
0.644402
110.357
0.652393
110.551
0.660858
110.737
0.667869
110.854
0.676569
110.951
0.683099
111.038
0.691803
111.06
0.697613
111.06
0.706473
111.053
0.71234
110.988
0.719447
110.899
0.727051
110.789
0.732586
110.654
0.739391
110.481
0.7458
110.271
0.751304
110.065
0.757012
109.814
0.762808
109.53
0.767818
109.234
0.772638
108.907
0.777872
108.571
0.782243
108.189
0.786398
107.791
0.790785
107.384
0.794712
106.944
0.798337
106.492
0.801628
106.001
0.805089
105.506
0.808211
104.994
0.810808
104.455
0.813361
103.905
0.815758
103.321
0.818031
102.74
0.819797
102.134
0.821342
101.515
0.82278
100.88
0.824049
100.22
0.825003
99.5632
0.825548
98.88
0.825935
98.1976
0.826097
97.4909
0.826108
96.7744
0.825674
96.0503
0.824972
95.3105
0.823941
94.5741
0.82273
93.8153
0.821256
93.0587
0.819358
92.284
0.817169
91.5089
0.814503
90.7288
0.811716
89.9414
0.80845
89.1571
0.80491
88.3591
0.800849
87.5683
0.796399
86.7664
0.791593
85.9739
0.786264
85.1785
0.780658
84.3888
0.774357
83.6043
0.767742
82.819
0.760373
82.0461
0.752623
81.2757
0.744213
80.5241
0.735216
79.7772
0.725531
79.0514
0.715043
78.3356
0.703867
77.6384
0.691921
76.956
0.679259
76.2916
0.665886
75.6438
0.651881
75.0078
0.641631
74.3789
0.635982
73.7564
0.629517
73.1415
0.622559
72.5311
0.615342
71.9262
0.60785
71.3262
0.599841
70.7308
0.591098
70.1405
0.581241
69.5512
0.570519
68.9671
0.547845
68.4017
0.507114
67.8531
0.463803
67.3195
0.419063
66.8001
0.374396
66.2922
0.331388
65.7929
0.291266
65.3037
0.254892
64.8272
0.222726
64.3631
0.194843
63.9095
0.171052
63.4652
0.151001
63.0317
0.132471
62.608
0.117394
62.1924
0.105481
61.7804
0.096075
61.3695
0.0885867
60.9591
0.0825646
60.5483
0.0776973
60.1376
0.0737929
59.7276
0.0707508
59.3158
0.0685177
58.9013
0.06705
58.4852
0.0663411
58.0689
0.0663977
57.6517
0.0672683
57.2318
0.0683428
56.811
0.0694422
56.3933
0.0706788
55.9729
0.0721353
55.5503
0.0738462
55.1261
0.0759916
54.6955
0.0791046
54.2533
0.083987
53.7865
0.0909057
53.2607
0.0960486
52.7293
0.0986387
52.1568
0.0970433
51.4935
0.0746769
50.6378
0.0286301
49.3478
-0.0546621
47.1681
-0.20933
44.0286
-0.483452
41.6376
-0.652194
41.0924
-0.788199
41.2832
-0.816204
41.4657
-0.791831
40.7573
-0.730277
38.3734
-0.645616
35.8428
-0.583278
33.5353
-0.541575
31.5447
-0.50877
29.9898
-0.47994
28.8434
-0.455309
27.9964
-0.432313
27.3747
-0.408888
26.9196
-0.384327
26.5809
-0.35966
26.3027
-0.333299
26.0704
-0.303761
25.8394
-0.271015
25.6048
-0.235455
25.3973
-0.197536
25.172
-0.15764
-0.124199
-1.22924e-011
-1.21787e-011
-1.23634e-011
-1.11413e-011
-1.09708e-011
-1.09281e-011
-1.17097e-011
-1.15961e-011
-1.14113e-011
-1.13118e-011
-1.16529e-011
-1.04166e-011
-1.03881e-011
-9.84812e-012
-8.79652e-012
-8.54072e-012
-7.68807e-012
-6.82121e-012
-6.97753e-012
-7.04858e-012
-7.63123e-012
-7.92966e-012
-7.23333e-012
-6.12488e-012
-4.53326e-012
-4.09273e-012
-3.5385e-012
-3.22586e-012
-3.76588e-012
-4.77485e-012
-5.76961e-012
-4.67537e-012
-4.81748e-012
-5.21538e-012
-5.14433e-012
-4.98801e-012
-4.88853e-012
-4.70379e-012
-4.22062e-012
-4.27747e-012
-3.96483e-012
-4.49063e-012
-6.73595e-012
-8.62599e-012
-1.13403e-011
-1.87015e-011
-3.57261e-011
-7.43796e-011
-1.65201e-010
-3.7366e-010
-8.46356e-010
-1.90535e-009
-4.25385e-009
-9.40857e-009
-2.05946e-008
-4.45983e-008
-9.55173e-008
-2.0226e-007
-4.23335e-007
-8.75563e-007
-1.78893e-006
-3.60972e-006
-7.191e-006
-1.41381e-005
-2.74236e-005
-5.24581e-005
-9.89168e-005
-0.000183778
-0.000336244
-0.000605491
-0.00107244
-0.00186696
-0.00319181
-0.00535384
-0.00880108
-0.0141603
-0.0222626
-0.0341329
-0.0509033
-0.073589
-0.10264
-0.137164
-0.173704
-0.204481
-0.214982
-0.181035
-0.0667813
0.169343
0.57367
1.22985
2.21885
3.62008
5.50037
7.90244
10.8367
14.2849
18.2075
22.5505
27.254
32.2573
37.5037
42.9421
48.5287
54.2267
60.0054
65.8398
71.7096
77.5987
83.4938
89.3842
95.2614
101.118
106.949
112.748
118.512
124.237
129.92
135.559
141.151
146.695
152.188
157.63
163.018
168.352
173.63
178.851
184.015
189.12
194.167
199.153
204.08
208.945
213.75
218.492
223.173
227.792
232.348
236.843
241.274
245.643
249.95
254.194
258.376
262.495
266.553
270.549
274.483
278.356
282.167
285.918
289.607
293.239
296.806
300.321
303.764
307.171
310.482
313.789
316.97
320.159
323.26
326.266
329.335
332.179
335.115
337.952
340.647
343.432
346.089
348.629
351.24
353.758
356.136
358.552
360.945
363.189
365.396
367.632
369.782
371.819
373.839
375.868
377.81
379.648
381.469
383.287
385.04
386.695
388.301
389.909
391.478
392.964
394.373
395.757
397.133
398.459
399.707
400.89
402.051
403.203
404.316
405.36
406.341
407.303
408.266
409.207
410.096
410.937
411.76
412.581
413.404
414.214
414.995
415.74
416.474
417.234
418.008
418.764
419.481
420.167
420.866
421.588
422.31
423.005
423.653
424.284
424.939
425.612
426.294
426.977
427.659
428.317
428.965
429.612
430.257
430.878
431.451
431.965
432.429
432.86
433.27
433.669
434.068
434.466
434.852
435.215
435.553
435.873
436.189
436.506
436.821
437.136
437.452
437.767
438.077
438.382
438.684
438.989
439.29
439.585
439.883
440.176
440.476
440.778
441.039
441.295
441.541
441.803
442.116
442.447
442.779
443.086
443.334
443.5
443.59
443.596
443.57
443.491
443.453
443.467
443.486
443.403
443.28
442.946
441.744
436.577
422.823
406.422
388.714
370.984
354.26
339.24
326.262
315.533
306.992
300.389
295.515
291.968
289.741
288.087
287.883
287.687
287.505
287.325
287.154
286.997
286.845
286.707
286.574
286.446
286.326
286.211
286.1
285.993
285.89
285.789
285.692
285.597
285.505
285.415
285.328
285.242
285.16
285.078
284.999
284.921
284.845
284.77
284.696
284.623
284.552
284.481
284.411
284.342
284.274
284.207
284.142
284.077
284.013
283.95
283.889
283.828
283.769
283.71
283.653
283.596
283.542
283.486
283.434
283.381
283.33
283.279
283.229
283.179
283.131
283.083
283.035
282.987
282.94
282.893
282.846
282.8
282.752
282.706
282.659
282.613
282.566
282.52
282.472
282.427
282.377
282.329
282.279
282.228
282.177
282.125
282.073
282.02
281.965
281.91
281.854
281.797
281.738
281.679
281.617
281.555
281.491
281.425
281.358
281.289
281.218
281.146
281.071
280.995
280.917
280.837
280.755
280.672
280.587
280.5
22.0285
-0.884379
22.647
-0.882044
23.2549
-0.876672
23.8573
-0.872839
24.4631
-0.874346
25.0743
-0.881041
25.686
-0.886911
26.2929
-0.890328
26.892
-0.891538
27.4816
-0.890909
28.0616
-0.88872
28.6335
-0.885165
29.1944
-0.880285
29.7375
-0.873822
30.2598
-0.865498
30.7612
-0.855106
31.2462
-0.842542
31.7222
-0.827788
32.1862
-0.810931
32.6402
-0.792
33.1497
-0.771299
33.7735
-0.749964
34.4109
-0.728884
35.0493
-0.706579
35.68
-0.683533
36.2936
-0.660295
36.878
-0.637393
37.4207
-0.615357
37.9118
-0.594731
38.3448
-0.576022
38.7177
-0.559683
39.0342
-0.546056
39.301
-0.535366
39.5263
-0.527634
39.7182
-0.522787
39.8834
-0.520641
40.0264
-0.520733
40.15
-0.522788
40.2562
-0.526393
40.3467
-0.531146
40.4228
-0.536685
40.4872
-0.542747
40.5481
-0.549062
40.6112
-0.55526
40.6721
-0.561481
40.7248
-0.567406
40.7655
-0.572937
40.7925
-0.578031
40.8044
-0.58268
40.7997
-0.586866
40.7779
-0.590576
40.7392
-0.593843
40.6827
-0.596694
40.6066
-0.599163
40.5096
-0.6013
40.3903
-0.603159
40.2471
-0.604774
40.078
-0.606168
39.8801
-0.607351
39.6519
-0.608329
39.3925
-0.609131
39.1014
-0.609796
38.7767
-0.610353
38.414
-0.610826
38.0043
-0.611254
37.5295
-0.611738
36.9554
-0.612483
36.2225
-0.613855
35.2375
-0.616409
33.8728
-0.620867
31.9842
-0.628
29.4589
-0.638316
26.2895
-0.651531
22.6314
-0.666357
18.7821
-0.680661
15.0746
-0.691639
11.7534
-0.69649
8.91779
-0.69334
6.55186
-0.678646
4.59228
-0.650493
2.97628
-0.607015
1.68802
-0.527098
0.83196
-0.287567
0.418589
-0.139897
0.217801
-0.0934435
0.0978864
-0.0656339
0.0349048
-0.031118
0.0103237
-0.0094903
0.00273643
-0.00207175
0.000679785
-0.000403909
0.000161852
-7.63714e-005
3.74185e-005
-1.43476e-005
8.46819e-006
-2.69239e-006
1.88584e-006
-5.05176e-007
4.14732e-007
-9.47938e-008
9.02965e-008
-1.77899e-008
1.94988e-008
-3.33917e-009
4.18187e-009
-6.26866e-010
8.91637e-010
-1.17698e-010
1.89084e-010
-2.21013e-011
3.98597e-011
-4.1492e-012
8.34621e-012
-7.79371e-013
1.71951e-012
-1.44966e-013
3.20632e-013
-2.61696e-014
3.10862e-014
-3.57093e-015
-1.68754e-014
8.35269e-016
-4.17444e-014
1.86223e-015
-7.10543e-014
1.68789e-015
-1.24345e-013
1.28066e-015
-1.58096e-013
2.35966e-015
-2.06946e-013
1.07466e-015
-2.06946e-013
2.3731e-015
-2.08722e-013
1.45804e-015
-1.90958e-013
1.53523e-015
-1.92735e-013
2.06953e-015
-1.86517e-013
1.26375e-015
-1.29674e-013
2.39912e-015
-8.34888e-014
1.2516e-015
-1.1724e-013
1.6623e-015
-1.13687e-013
1.7898e-015
-1.24345e-013
1.28239e-015
-1.38556e-013
1.95677e-015
-1.3145e-013
9.14633e-016
-1.91847e-013
1.83274e-015
-1.81188e-013
1.47365e-015
-1.77636e-013
1.68008e-015
-1.75859e-013
1.49013e-015
-1.86517e-013
1.12107e-015
-2.2915e-013
1.13885e-015
-2.27374e-013
9.90961e-016
-2.82441e-013
1.53566e-015
-3.28626e-013
1.29671e-015
-2.8777e-013
1.44763e-015
-3.2685e-013
1.20303e-015
-2.8777e-013
1.0842e-015
-2.66454e-013
1.09938e-015
-2.27374e-013
1.75077e-015
-2.06057e-013
5.408e-016
-2.07834e-013
2.05044e-015
-2.52243e-013
8.80372e-017
-2.50466e-013
2.03657e-015
-2.85993e-013
6.5746e-016
-2.89546e-013
1.4203e-015
-2.78888e-013
1.35612e-015
-2.77112e-013
1.29844e-015
-2.34479e-013
1.40079e-015
-2.54019e-013
1.19262e-015
-2.75335e-013
1.66013e-015
-3.16192e-013
1.7022e-015
1.71391e-015
279.749
278.982
278.223
277.475
276.726
275.981
275.246
274.52
273.806
273.109
272.426
271.751
271.082
270.426
269.784
269.154
268.536
267.938
267.37
266.831
266.314
265.805
265.3
264.808
264.339
263.904
263.509
263.147
262.81
262.498
262.215
261.957
261.719
261.5
261.379
261.399
261.461
261.513
261.508
261.418
261.239
261.019
260.675
260.126
259.537
258.947
258.393
257.889
257.437
257.027
256.643
256.277
255.926
255.583
255.239
254.888
254.527
254.153
253.763
253.356
252.942
252.535
252.148
251.79
251.464
251.168
250.896
250.631
250.36
250.065
249.731
249.317
248.751
248.006
247.216
246.374
245.487
244.546
243.46
242.141
240.397
237.779
233.153
222.578
190.878
106.952
41.3349
11.2124
2.33739
0.444295
0.0829475
0.0154471
0.00287577
0.000535348
9.96577e-005
1.85517e-005
3.45348e-006
6.42881e-007
1.19674e-007
2.22767e-008
4.1462e-009
7.71347e-010
1.43185e-010
2.62297e-011
4.43023e-012
1.52767e-013
-7.21201e-013
-9.45022e-013
-8.70415e-013
-9.05942e-013
-8.31335e-013
-6.92779e-013
-7.38964e-013
-7.0699e-013
-7.14095e-013
-7.8515e-013
-7.88702e-013
-8.02913e-013
-7.74492e-013
-8.56204e-013
-8.49099e-013
-9.5568e-013
-9.66338e-013
-9.69891e-013
-8.93507e-013
-7.92255e-013
-6.8745e-013
-6.59028e-013
-6.83897e-013
-6.82121e-013
-6.98108e-013
-6.19949e-013
-6.44818e-013
-5.40012e-013
-6.18172e-013
-6.43041e-013
-5.11591e-013
-5.32907e-013
-4.28102e-013
-4.29878e-013
-4.83169e-013
-5.52447e-013
-6.55476e-013
-7.74492e-013
-8.45546e-013
-8.75744e-013
-1.0143e-012
-1.08358e-012
-1.05693e-012
)
;

boundaryField
{
    inlet
    {
        type            calculated;
        value           nonuniform List<scalar> 2(1.22877e-011 -4.75275e-012);
    }
    outlet
    {
        type            calculated;
        value           nonuniform List<scalar> 2(-1.05506e-012 -3.45378e-013);
    }
    bottom
    {
        type            symmetryPlane;
        value           uniform 0;
    }
    top
    {
        type            symmetryPlane;
        value           uniform 0;
    }
    obstacle
    {
        type            calculated;
        value           nonuniform List<scalar> 
102
(
24.9193
-21.4031
0.123253
0.123127
0.123017
0.123054
0.123034
0.123066
0.123095
0.12309
0.123145
0.123115
0.123126
0.123113
0.123095
0.123069
0.123037
0.122999
0.122957
0.12291
0.12286
0.122805
0.122746
0.122684
0.122618
0.122548
0.122476
0.1224
0.122321
0.12224
0.122155
0.122068
0.121978
0.121885
0.12179
0.121693
0.121593
0.121492
0.121387
0.121282
0.121173
0.121063
0.12095
0.120837
0.12072
0.120604
0.120482
0.120364
0.120237
0.120116
0.119984
0.11986
0.119725
0.119597
0.119459
0.119327
0.119186
0.11905
0.118906
0.118766
0.11862
0.118472
0.118328
0.118173
0.118027
0.117868
0.117719
0.117557
0.117404
0.117239
0.117075
0.116916
0.116748
0.11658
0.116414
0.116243
0.116074
0.115901
0.11573
0.115554
0.11538
0.115201
0.115025
0.114845
0.114667
0.114485
0.114306
0.114123
0.113943
0.113759
0.113578
0.113395
0.113214
0.113031
0.112851
0.112668
0.112488
0.112306
0.112127
0.111945
0.111767
0.111587
)
;
    }
    defaultFaces
    {
        type            empty;
        value           nonuniform 0();
    }
}


// ************************************************************************* //
