/*--------------------------------*- C++ -*----------------------------------*\
| =========                 |                                                 |
| \\      /  F ield         | OpenFOAM: The Open Source CFD Toolbox           |
|  \\    /   O peration     | Version:  5.x                                   |
|   \\  /    A nd           | Web:      www.OpenFOAM.org                      |
|    \\/     M anipulation  |                                                 |
\*---------------------------------------------------------------------------*/
/*   Windows 32 and 64 bit porting by blueCAPE: http://www.bluecape.com.pt   *\
|  Based on Windows porting (2.0.x v4) by Symscape: http://www.symscape.com   |
\*---------------------------------------------------------------------------*/
FoamFile
{
    version     2.0;
    format      ascii;
    class       volVectorField;
    location    "0.007";
    object      U;
}
// * * * * * * * * * * * * * * * * * * * * * * * * * * * * * * * * * * * * * //

dimensions      [0 1 -1 0 0 0 0];

internalField   nonuniform List<vector> 
1000
(
(3.19997e-012 4.14253e-012 0)
(2.80454e-012 4.03508e-012 0)
(3.33074e-012 3.88586e-012 0)
(2.46077e-012 3.74194e-012 -2.97086e-018)
(2.77793e-012 3.82567e-012 2.97764e-018)
(2.42459e-012 3.49745e-012 0)
(2.4689e-012 3.58903e-012 0)
(2.18701e-012 3.36866e-012 5.99635e-018)
(2.83474e-012 3.42407e-012 -6.01017e-018)
(1.80074e-012 3.27987e-012 6.02405e-018)
(2.87404e-012 3.19882e-012 -6.03799e-018)
(1.96254e-012 3.25092e-012 0)
(1.97391e-012 2.93128e-012 0)
(1.59719e-012 3.04217e-012 0)
(1.34815e-012 2.90587e-012 0)
(1.45354e-012 2.75741e-012 -1.22174e-017)
(1.1765e-012 2.76208e-012 1.22461e-017)
(1.48863e-012 2.8072e-012 0)
(9.57792e-013 2.7537e-012 0)
(9.48886e-013 2.65132e-012 0)
(3.94518e-013 2.53627e-012 -4.82896e-020)
(8.91399e-013 2.66443e-012 1.23915e-017)
(4.9338e-013 2.37669e-012 -2.4842e-017)
(1.00199e-012 2.51709e-012 1.24507e-017)
(5.1501e-013 2.36398e-012 1.24804e-017)
(1.39478e-013 2.41241e-012 -1.25104e-017)
(-4.75736e-013 2.37613e-012 2.50809e-017)
(5.17234e-013 2.30936e-012 0)
(-2.73347e-013 2.53401e-012 -2.52021e-017)
(-3.32817e-013 2.10227e-012 2.52631e-017)
(-1.21462e-012 2.35539e-012 -2.53244e-017)
(-2.89966e-013 2.23494e-012 2.5386e-017)
(-1.00896e-012 2.24813e-012 -2.54479e-017)
(4.26635e-013 2.29991e-012 0)
(-7.45856e-013 2.19239e-012 -2.55727e-017)
(-1.65938e-013 2.31847e-012 2.56355e-017)
(-3.30437e-013 2.03773e-012 0)
(1.05471e-013 2.20511e-012 0)
(5.51221e-013 2.11633e-012 0)
(6.84017e-013 2.00539e-012 -2.589e-017)
(6.06251e-013 2.04032e-012 2.59544e-017)
(1.01895e-012 1.94937e-012 5.08185e-020)
(1.88005e-012 1.95342e-012 5.09456e-020)
(3.11903e-012 2.02221e-012 0)
(6.77495e-012 1.93273e-012 0)
(1.54487e-011 2.60587e-012 5.13305e-020)
(3.81255e-011 3.1161e-012 -5.14602e-020)
(8.93687e-011 5.75192e-012 5.15904e-020)
(2.12624e-010 1.1219e-011 5.17214e-020)
(4.96623e-010 2.5096e-011 -2.66006e-017)
(1.15354e-009 5.74113e-011 2.66684e-017)
(2.65106e-009 1.33192e-010 5.21182e-020)
(6.03545e-009 3.09162e-010 -5.22519e-020)
(1.35955e-008 7.10861e-010 5.23862e-020)
(3.03077e-008 1.62063e-009 5.25212e-020)
(6.68379e-008 3.65417e-009 -5.26569e-020)
(1.45798e-007 8.14782e-009 -2.69774e-017)
(3.14517e-007 1.79589e-008 2.71533e-017)
(6.70829e-007 3.91188e-008 -5.30683e-020)
(1.41436e-006 8.41891e-008 5.32068e-020)
(2.94705e-006 1.78976e-007 5.33461e-020)
(6.06729e-006 3.75751e-007 -5.34862e-020)
(1.23388e-005 7.78869e-007 5.49676e-017)
(2.47802e-005 1.59358e-006 -1.10064e-016)
(4.9133e-005 3.21745e-006 5.51506e-017)
(9.61508e-005 6.4084e-006 -5.52969e-017)
(0.000185656 1.25879e-005 1.1105e-016)
(0.000353591 2.43769e-005 -5.57005e-017)
(0.000664018 4.65235e-005 5.44872e-020)
(0.0012291 8.74724e-005 5.46333e-020)
(0.00224158 0.000161957 -5.61493e-017)
(0.00402627 0.000295168 5.63008e-017)
(0.00711934 0.00052927 5.50762e-020)
(0.0123869 0.000933272 -5.52253e-020)
(0.021196 0.00161744 5.53753e-020)
(0.035652 0.00275351 5.55259e-020)
(0.0589127 0.0046017 -5.56772e-020)
(0.0955814 0.00754472 5.58291e-020)
(0.152165 0.0121274 -5.7249e-017)
(0.237555 0.0190981 5.74173e-017)
(0.363461 0.029445 5.62869e-020)
(0.544683 0.0444163 -5.76712e-017)
(0.79909 0.0655123 5.78635e-017)
(1.14717 0.0944352 0)
(1.61107 0.132992 0)
(2.2131 0.182953 5.82258e-017)
(2.97391 0.245881 -5.8431e-017)
(3.91052 0.322966 0)
(5.03467 0.414849 0)
(6.35171 0.521606 0)
(7.86036 0.642817 5.76753e-020)
(9.55317 0.777674 -5.83234e-017)
(11.4175 0.925113 5.87977e-017)
(13.4371 1.08398 5.83375e-017)
(15.5941 1.25322 -5.8796e-017)
(17.8707 1.43191 0)
(20.2502 1.61936 5.82615e-017)
(22.7178 1.81504 -5.86491e-017)
(25.2603 2.01855 -5.80829e-017)
(27.8667 2.22959 1.16624e-016)
(30.5274 2.44795 -5.8549e-017)
(33.2346 2.67341 0)
(35.9817 2.90583 5.80198e-020)
(38.7631 3.14507 5.79889e-020)
(41.5743 3.391 5.76393e-017)
(44.4114 3.6435 -6.43045e-019)
(47.2713 3.90249 -5.81237e-017)
(50.1511 4.16786 -5.73912e-017)
(53.0487 4.43955 5.8022e-017)
(55.9622 4.7175 5.77367e-020)
(58.8898 5.00165 0)
(61.8302 5.29195 0)
(64.7822 5.58838 0)
(67.7447 5.89091 0)
(70.7168 6.19952 0)
(73.6978 6.51418 5.74249e-020)
(76.6871 6.8349 -5.654e-017)
(79.6838 7.16165 5.71949e-017)
(82.6877 7.49442 5.64716e-017)
(85.698 7.83323 -6.94324e-019)
(88.7146 8.17804 -5.69266e-017)
(91.7368 8.52887 5.70871e-020)
(94.7644 8.88569 5.70293e-020)
(97.7971 9.24849 0)
(100.835 9.61727 5.58555e-017)
(103.876 9.992 -1.12232e-016)
(106.922 10.3727 5.63221e-017)
(109.972 10.7592 5.56281e-017)
(113.026 11.1517 -5.61369e-017)
(116.083 11.55 0)
(119.143 11.954 5.52846e-017)
(122.206 12.3639 -5.59134e-017)
(125.271 12.7795 -5.50922e-017)
(128.339 13.2008 5.57818e-017)
(131.41 13.6277 0)
(134.482 14.0601 0)
(137.556 14.4981 0)
(140.632 14.9415 0)
(143.709 15.3903 5.45101e-017)
(146.787 15.8444 -5.51006e-017)
(149.866 16.3038 0)
(152.946 16.7683 -5.4217e-017)
(156.026 17.2378 5.4926e-017)
(159.106 17.7124 0)
(162.187 18.1919 0)
(165.267 18.6763 -5.37704e-017)
(168.346 19.1653 1.08208e-016)
(171.426 19.659 -5.43964e-017)
(174.504 20.1573 0)
(177.582 20.66 0)
(180.657 21.1671 0)
(183.732 21.6784 0)
(186.804 22.1939 1.06235e-016)
(189.876 22.7133 -1.60853e-018)
(192.944 23.2369 -1.07438e-016)
(196.01 23.7641 0)
(199.075 24.2951 0)
(202.135 24.8297 0)
(205.193 25.3678 0)
(208.248 25.9092 -1.04923e-016)
(211.299 26.4538 1.06343e-016)
(214.347 27.0016 -5.49038e-020)
(217.391 27.5523 0)
(220.43 28.1057 1.04122e-016)
(223.465 28.662 -2.09457e-016)
(226.496 29.2207 1.05359e-016)
(229.521 29.7816 5.47033e-020)
(232.542 30.345 0)
(235.557 30.9103 -5.46209e-020)
(238.566 31.4773 -1.0294e-016)
(241.569 32.046 1.04373e-016)
(244.566 32.6163 0)
(247.556 33.1877 5.44975e-020)
(250.539 33.7601 -5.44593e-020)
(253.515 34.3333 -5.44345e-020)
(256.483 34.9069 1.01868e-016)
(259.443 35.4811 -1.69956e-018)
(262.395 36.0549 -1.03229e-016)
(265.337 36.6284 5.43256e-020)
(268.27 37.2014 0)
(271.193 37.7734 1.00919e-016)
(274.107 38.3441 -1.60401e-018)
(277.008 38.9125 -1.02365e-016)
(279.898 39.4789 1.00449e-016)
(282.777 40.0427 -1.01915e-016)
(285.642 40.6032 -5.42254e-020)
(288.494 41.1598 -5.42282e-020)
(291.331 41.7114 0)
(294.153 42.2583 -5.42229e-020)
(296.959 42.7991 -5.42435e-020)
(299.747 43.3332 9.93955e-017)
(302.517 43.8592 -1.00889e-016)
(305.265 44.3761 -9.91283e-017)
(307.994 44.8835 1.70959e-018)
(310.698 45.3794 1.00416e-016)
(313.379 45.8629 0)
(316.032 46.3318 5.44254e-020)
(318.656 46.7849 -5.44606e-020)
(321.249 47.2202 -5.45322e-020)
(323.807 47.6359 0)
(326.329 48.0297 -5.46631e-020)
(328.81 48.3987 -5.47497e-020)
(331.247 48.7409 -9.79701e-017)
(333.635 49.0528 9.9552e-017)
(335.97 49.332 -5.50496e-020)
(338.248 49.5746 5.51887e-020)
(340.46 49.7773 -5.53106e-020)
(342.603 49.9362 0)
(344.668 50.0469 5.56217e-020)
(346.647 50.1053 9.79387e-017)
(348.531 50.106 -9.94692e-017)
(350.309 50.0446 -9.81645e-017)
(351.97 49.9148 9.9483e-017)
(353.501 49.7112 -5.65759e-020)
(354.889 49.4271 5.68139e-020)
(356.117 49.0558 0)
(357.169 48.5903 -5.72902e-020)
(358.029 48.0237 5.75404e-020)
(358.677 47.3483 -5.77998e-020)
(359.105 46.5608 0)
(359.288 45.6515 5.83433e-020)
(359.229 44.6232 -1.01438e-016)
(358.952 43.4897 1.02158e-016)
(358.469 42.2578 5.92284e-020)
(357.809 40.9439 -5.95319e-020)
(357.006 39.5665 -5.98416e-020)
(356.076 38.1341 6.01531e-020)
(355.013 36.6444 -1.05424e-016)
(353.805 35.092 2.12034e-016)
(352.433 33.4676 -1.06555e-016)
(350.871 31.7593 0)
(349.094 29.9544 -6.18096e-020)
(347.068 28.0376 6.2166e-020)
(344.756 25.9913 -6.25287e-020)
(342.101 23.7876 0)
(339.036 21.3931 -1.13408e-016)
(335.558 18.8102 1.13043e-016)
(331.758 16.095 1.16282e-016)
(327.787 13.3373 -1.1568e-016)
(323.819 10.6412 1.19185e-016)
(320.019 8.09954 2.02852e-018)
(316.515 5.78246 -1.19897e-016)
(313.384 3.73138 0)
(310.652 1.9594 -6.64291e-020)
(308.31 0.457361 6.68064e-020)
(306.322 -0.797229 -1.26338e-016)
(304.643 -1.83384 2.53515e-016)
(303.227 -2.68076 -1.27295e-016)
(302.033 -3.36394 -6.82636e-020)
(301.016 -3.9119 -1.29852e-016)
(300.132 -4.35318 1.302e-016)
(299.342 -4.71216 -6.93212e-020)
(298.618 -5.00708 -6.96781e-020)
(297.939 -5.25033 7.00385e-020)
(297.295 -5.44961 0)
(296.677 -5.60922 -1.34666e-016)
(296.082 -5.73154 -6.30803e-020)
(295.506 -5.81804 1.3601e-016)
(294.95 -5.86909 1.36982e-016)
(294.412 -5.88469 -1.37666e-016)
(293.88 -5.87281 -1.38646e-016)
(293.328 -5.85111 1.39309e-016)
(292.744 -5.82709 0)
(292.134 -5.7958 1.40943e-016)
(291.504 -5.75302 -1.41944e-016)
(290.858 -5.69582 1.42738e-016)
(290.209 -5.61588 -1.43558e-016)
(289.593 -5.48635 1.44233e-016)
(289.074 -5.26472 -6.25388e-020)
(288.674 -4.93664 -1.46205e-016)
(288.136 -4.70081 0)
(287.224 -4.73407 7.72552e-020)
(285.806 -5.14547 -7.77819e-020)
(283.427 -6.29193 1.51737e-016)
(279.181 -8.88845 3.79045e-018)
(271.309 -14.3559 -1.53508e-016)
(256.844 -25.1693 -8.22813e-020)
(236.924 -40.5317 1.78678e-016)
(220.827 -52.9616 -1.68223e-016)
(215.652 -56.7884 -1.80281e-016)
(217.326 -55.3649 1.80522e-016)
(220.771 -52.8224 -8.83357e-020)
(225.174 -49.8248 0)
(228.192 -48.3478 1.91156e-016)
(229.654 -48.5028 -4.11939e-016)
(231.341 -48.674 2.21753e-016)
(232.999 -48.8375 -2.38771e-016)
(234.417 -48.8895 2.53907e-016)
(235.641 -48.5763 -2.67581e-016)
(236.561 -47.8279 2.78326e-016)
(237.075 -46.5998 0)
(237.115 -44.8607 2.9368e-016)
(236.498 -42.7186 -2.99066e-016)
(235.147 -40.1995 -1.47901e-019)
(233.112 -37.2348 0)
(230.402 -33.8346 -3.07743e-016)
(226.985 -30.0962 6.20449e-016)
(223.004 -25.979 -3.12009e-016)
(218.45 -21.6562 1.52682e-019)
(212.671 -17.9123 -1.5259e-019)
(-4.94632e-012 4.17135e-012 0)
(-5.19998e-012 4.05179e-012 0)
(-4.10055e-012 3.9109e-012 0)
(-5.21502e-012 3.76752e-012 0)
(-4.58409e-012 3.84893e-012 0)
(-3.28372e-012 3.51277e-012 0)
(-6.06086e-012 3.60417e-012 0)
(-2.72044e-012 3.41639e-012 0)
(-6.85182e-012 3.44337e-012 0)
(-1.88833e-012 3.28505e-012 0)
(-7.0862e-012 3.21183e-012 0)
(-2.22104e-012 3.27464e-012 0)
(-5.50495e-012 2.94588e-012 0)
(-3.36315e-012 3.06802e-012 0)
(-3.95565e-012 2.93136e-012 0)
(-2.87179e-012 2.80112e-012 0)
(-3.62876e-012 2.78285e-012 0)
(-2.8124e-012 2.80975e-012 0)
(-2.54483e-012 2.77737e-012 0)
(-2.64036e-012 2.67552e-012 0)
(-2.81555e-012 2.58905e-012 2.73601e-020)
(-3.49727e-012 2.70467e-012 0)
(-2.04408e-012 2.40756e-012 0)
(-3.84408e-012 2.54477e-012 0)
(-6.96746e-013 2.38352e-012 0)
(-3.13365e-012 2.46699e-012 0)
(9.3282e-014 2.42417e-012 0)
(-2.54332e-012 2.33866e-012 0)
(-4.88472e-013 2.57131e-012 0)
(-1.71908e-012 2.16772e-012 0)
(-2.58923e-012 2.45568e-012 0)
(-1.20954e-012 2.28846e-012 0)
(-2.95751e-012 2.33673e-012 0)
(-4.66866e-013 2.33375e-012 0)
(-3.58243e-012 2.2761e-012 0)
(-4.33402e-013 2.37492e-012 0)
(-3.19573e-012 2.129e-012 0)
(-5.33478e-013 2.23437e-012 0)
(-2.95797e-012 2.17613e-012 0)
(3.66984e-014 2.01297e-012 0)
(-3.45445e-012 2.03791e-012 0)
(5.67388e-013 1.95311e-012 -2.66341e-020)
(-4.18606e-012 1.90095e-012 -2.66005e-020)
(-9.94991e-013 1.91966e-012 0)
(-5.3516e-012 1.6134e-012 0)
(-4.25222e-012 1.76574e-012 -2.65002e-020)
(-1.01943e-011 9.63961e-013 2.64669e-020)
(-1.97183e-011 4.41214e-013 -2.64338e-020)
(-4.18273e-011 -1.62488e-012 -2.64007e-020)
(-9.55723e-011 -5.88819e-012 2.63676e-020)
(-2.14224e-010 -1.6089e-011 -2.63347e-020)
(-4.8539e-010 -3.9456e-011 -2.63018e-020)
(-1.0853e-009 -9.27147e-011 2.62691e-020)
(-2.4096e-009 -2.13868e-010 -2.62364e-020)
(-5.29598e-009 -4.84399e-010 -2.62038e-020)
(-1.15154e-008 -1.08484e-009 2.61712e-020)
(-2.47704e-008 -2.40163e-009 -2.61388e-020)
(-5.26857e-008 -5.25821e-009 -2.61064e-020)
(-1.10781e-007 -1.13859e-008 2.60741e-020)
(-2.30207e-007 -2.4382e-008 -2.60419e-020)
(-4.7265e-007 -5.16245e-008 -2.60098e-020)
(-9.58512e-007 -1.08055e-007 2.59777e-020)
(-1.91937e-006 -2.23532e-007 -2.59457e-020)
(-3.79387e-006 -4.56926e-007 -2.59139e-020)
(-7.3997e-006 -9.22693e-007 2.5882e-020)
(-1.4236e-005 -1.8402e-006 -2.58503e-020)
(-2.70038e-005 -3.62373e-006 -2.58186e-020)
(-5.04813e-005 -7.04379e-006 2.5787e-020)
(-9.29586e-005 -1.35111e-005 -2.57555e-020)
(-0.000168526 -2.55667e-005 -2.5724e-020)
(-0.000300606 -4.77108e-005 2.56926e-020)
(-0.000527216 -8.77744e-005 -2.56612e-020)
(-0.00090846 -0.000159137 -2.56298e-020)
(-0.00153662 -0.000284221 2.55983e-020)
(-0.00254873 -0.000499861 -2.55666e-020)
(-0.00414053 -0.000865293 -2.55347e-020)
(-0.00657856 -0.00147367 2.55021e-020)
(-0.0102041 -0.00246803 -2.54688e-020)
(-0.0154174 -0.00406256 -2.54341e-020)
(-0.022624 -0.00656937 2.53975e-020)
(-0.0321168 -0.0104302 -2.53582e-020)
(-0.0438591 -0.0162509 -2.53153e-020)
(-0.0571284 -0.0248346 2.52676e-020)
(-0.069981 -0.0372065 0)
(-0.0784998 -0.0546233 0)
(-0.0758543 -0.0785556 -2.50829e-020)
(-0.0515536 -0.110637 0)
(0.00718902 -0.152589 0)
(0.11727 -0.206157 0)
(0.302498 -0.272938 0)
(0.591024 -0.354227 -2.45825e-020)
(1.01161 -0.450912 -2.44539e-020)
(1.59093 -0.563414 0)
(2.35007 -0.691669 0)
(3.29976 -0.835191 0)
(4.44054 -0.993217 0)
(5.76524 -1.16481 -2.37465e-020)
(7.26085 -1.34896 -2.36007e-020)
(8.91006 -1.54469 0)
(10.6938 -1.75107 0)
(12.5936 -1.9673 0)
(14.5925 -2.19268 0)
(16.6755 -2.4266 -2.28751e-020)
(18.8294 -2.66858 -2.27309e-020)
(21.043 -2.9182 0)
(23.3074 -3.1751 0)
(25.6154 -3.439 0)
(27.9609 -3.70964 0)
(30.3387 -3.98681 -2.20147e-020)
(32.7451 -4.27033 -2.18723e-020)
(35.1769 -4.56002 0)
(37.6315 -4.85574 0)
(40.1065 -5.15733 0)
(42.6001 -5.46468 0)
(45.1108 -5.77765 0)
(47.6371 -6.09615 -2.10238e-020)
(50.178 -6.42004 -2.08834e-020)
(52.7323 -6.74923 0)
(55.2992 -7.08362 -2.06034e-020)
(57.8778 -7.4231 0)
(60.4675 -7.76759 0)
(63.0676 -8.11698 -2.01856e-020)
(65.6772 -8.47118 -2.00469e-020)
(68.2959 -8.83011 0)
(70.9231 -9.19369 0)
(73.5582 -9.56181 0)
(76.2007 -9.93441 1.94948e-020)
(78.8502 -10.3114 -1.93574e-020)
(81.5061 -10.6927 -1.92203e-020)
(84.1681 -11.0783 0)
(86.8357 -11.468 0)
(89.5085 -11.8618 0)
(92.1862 -12.2596 0)
(94.8683 -12.6613 -1.85382e-020)
(97.5545 -13.0669 0)
(100.244 -13.4763 0)
(102.938 -13.8894 0)
(105.635 -14.3062 0)
(108.334 -14.7265 0)
(111.036 -15.1504 -1.77276e-020)
(113.741 -15.5777 0)
(116.448 -16.0084 0)
(119.156 -16.4423 -1.73255e-020)
(121.866 -16.8795 0)
(124.578 -17.3198 0)
(127.291 -17.7632 -1.69255e-020)
(130.005 -18.2096 0)
(132.72 -18.6589 0)
(135.436 -19.1111 0)
(138.152 -19.566 0)
(140.869 -20.0237 0)
(143.586 -20.4839 0)
(146.302 -20.9468 0)
(149.018 -21.412 1.58708e-020)
(151.734 -21.8796 0)
(154.45 -22.3496 0)
(157.164 -22.8217 0)
(159.878 -23.2962 0)
(162.589 -23.7723 0)
(165.301 -24.2511 0)
(168.008 -24.7309 -1.49542e-020)
(170.716 -25.2135 1.48403e-020)
(173.42 -25.697 0)
(176.122 -26.1827 0)
(178.823 -26.6701 0)
(181.518 -27.1584 0)
(184.211 -27.6489 -1.4198e-020)
(186.901 -28.1404 0)
(189.584 -28.6331 1.39397e-020)
(192.264 -29.1275 -1.3819e-020)
(194.939 -29.6229 1.36934e-020)
(197.607 -30.1192 0)
(200.269 -30.617 -1.34427e-020)
(202.924 -31.1159 1.33204e-020)
(205.571 -31.6154 1.3193e-020)
(208.209 -32.116 0)
(210.839 -32.6179 1.29501e-020)
(213.457 -33.1205 1.28263e-020)
(216.064 -33.6239 -1.27022e-020)
(218.658 -34.1284 0)
(221.239 -34.634 1.24626e-020)
(223.804 -35.1402 -1.23407e-020)
(226.351 -35.6474 1.22186e-020)
(228.88 -36.1558 0)
(231.389 -36.6654 -1.19823e-020)
(233.874 -37.176 1.18626e-020)
(236.334 -37.6877 1.17429e-020)
(238.766 -38.201 0)
(241.168 -38.7159 1.15094e-020)
(243.535 -39.2325 1.13923e-020)
(245.865 -39.7508 -1.12746e-020)
(248.155 -40.2712 0)
(250.399 -40.7943 1.10434e-020)
(252.594 -41.32 -1.09293e-020)
(254.734 -41.8486 1.08143e-020)
(256.816 -42.3805 0)
(258.834 -42.9163 -1.05855e-020)
(260.783 -43.4564 1.04734e-020)
(262.657 -44.0013 1.03617e-020)
(264.451 -44.5513 0)
(266.16 -45.1069 1.01377e-020)
(267.78 -45.669 1.00271e-020)
(269.307 -46.2382 -9.91833e-021)
(270.736 -46.815 0)
(272.066 -47.3998 9.70315e-021)
(273.295 -47.9932 -9.59626e-021)
(274.424 -48.5957 9.4913e-021)
(275.454 -49.2082 0)
(276.388 -49.8308 -9.28857e-021)
(277.231 -50.4637 9.19027e-021)
(277.989 -51.1069 9.09415e-021)
(278.668 -51.7603 0)
(279.278 -52.4241 8.91129e-021)
(279.825 -53.0979 8.82625e-021)
(280.318 -53.781 -8.74607e-021)
(280.766 -54.4724 0)
(281.176 -55.171 8.59926e-021)
(281.554 -55.8757 -8.53419e-021)
(281.906 -56.5853 8.47612e-021)
(282.236 -57.2981 0)
(282.547 -58.0123 -8.38267e-021)
(282.842 -58.7256 8.34713e-021)
(283.121 -59.4363 0)
(283.385 -60.1427 -8.29553e-021)
(283.635 -60.8437 8.2797e-021)
(283.869 -61.5367 8.26939e-021)
(284.082 -62.2195 -8.26246e-021)
(284.26 -62.8913 0)
(284.393 -63.5513 8.25909e-021)
(284.472 -64.1987 -8.26371e-021)
(284.527 -64.8328 0)
(284.596 -65.4518 8.29037e-021)
(284.684 -66.0534 -8.31509e-021)
(284.791 -66.6355 8.34863e-021)
(284.924 -67.1953 0)
(285.112 -67.7311 -8.45072e-021)
(285.394 -68.2421 8.52608e-021)
(285.839 -68.7241 8.61743e-021)
(286.531 -69.1727 0)
(287.335 -69.5839 8.84003e-021)
(288.047 -69.9584 8.9569e-021)
(288.637 -70.2982 -9.06709e-021)
(289.126 -70.6066 0)
(289.54 -70.8867 9.25251e-021)
(289.899 -71.1416 -9.32535e-021)
(290.218 -71.3745 9.3857e-021)
(290.504 -71.5879 0)
(290.762 -71.7847 -9.47415e-021)
(290.992 -71.9666 9.50456e-021)
(291.197 -72.1351 9.52726e-021)
(291.38 -72.2914 0)
(291.543 -72.4364 9.5557e-021)
(291.69 -72.5706 9.56395e-021)
(291.824 -72.6944 -9.56937e-021)
(291.947 -72.808 0)
(292.062 -72.9115 9.57388e-021)
(292.17 -73.0048 -9.57341e-021)
(292.27 -73.088 9.57106e-021)
(292.366 -73.1611 0)
(292.455 -73.2239 -9.56105e-021)
(292.539 -73.2765 9.55337e-021)
(292.619 -73.3187 9.5444e-021)
(292.694 -73.3504 0)
(292.763 -73.3715 9.52468e-021)
(292.823 -73.382 9.51429e-021)
(292.866 -73.3824 -9.5039e-021)
(292.88 -73.3731 0)
(292.858 -73.3552 9.47992e-021)
(292.815 -73.3304 -9.46443e-021)
(292.782 -73.3011 9.44576e-021)
(292.768 -73.2709 0)
(292.769 -73.2407 -9.4215e-021)
(292.786 -73.2124 9.43281e-021)
(292.821 -73.188 9.48001e-021)
(292.889 -73.1665 0)
(293.012 -73.1355 9.85678e-021)
(293.231 -73.0608 1.03948e-020)
(293.616 -72.8814 -1.1387e-020)
(294.152 -72.5854 0)
(294.736 -72.2815 1.29199e-020)
(295.292 -72.0838 -1.29123e-020)
(295.773 -72.0274 1.28702e-020)
(296.19 -72.1527 0)
(296.569 -72.49 -1.26396e-020)
(296.968 -73.0278 1.26373e-020)
(297.413 -73.7763 1.27339e-020)
(297.532 -74.7449 0)
(297.405 -75.9436 1.35383e-020)
(297.49 -77.3534 1.41473e-020)
(297.787 -78.942 -1.48331e-020)
(298.279 -80.6632 0)
(298.975 -82.4599 1.63067e-020)
(299.867 -84.268 -1.7024e-020)
(300.921 -86.0216 1.76837e-020)
(302.089 -87.66 0)
(303.32 -89.1322 -1.8724e-020)
(304.575 -90.402 1.90978e-020)
(305.846 -91.4462 0)
(307.051 -92.2571 -1.96003e-020)
(309.568 -92.8379 1.97074e-020)
(309.917 -92.9026 0)
(310.347 -92.9642 0)
(310.644 -93.0226 0)
(310.655 -93.0778 0)
(310.61 -93.1298 0)
(310.534 -93.1785 0)
(310.442 -93.224 0)
(310.373 -93.2663 0)
(310.305 -93.3054 0)
(310.284 -93.3413 0)
(310.265 -93.374 0)
(310.253 -93.4035 0)
(310.274 -93.4298 0)
(310.298 -93.453 0)
(310.333 -93.473 0)
(310.373 -93.4898 0)
(310.418 -93.5035 0)
(310.466 -93.5141 0)
(310.518 -93.5216 0)
(310.572 -93.526 0)
(310.629 -93.5274 0)
(310.688 -93.5257 0)
(310.747 -93.521 0)
(310.808 -93.5132 0)
(310.869 -93.5025 0)
(310.93 -93.4888 0)
(310.991 -93.4721 0)
(311.051 -93.4525 0)
(311.11 -93.43 0)
(311.168 -93.4046 0)
(311.224 -93.3763 0)
(311.278 -93.3452 0)
(311.331 -93.3112 0)
(311.381 -93.2744 0)
(311.429 -93.2348 0)
(311.475 -93.1925 0)
(311.518 -93.1474 0)
(311.559 -93.0995 0)
(311.597 -93.049 0)
(311.633 -92.9958 0)
(311.666 -92.9398 0)
(311.697 -92.8813 0)
(311.725 -92.8201 0)
(311.75 -92.7563 0)
(311.773 -92.6899 0)
(311.792 -92.6209 0)
(311.81 -92.5494 0)
(311.824 -92.4754 0)
(311.837 -92.3988 0)
(311.846 -92.3197 0)
(311.854 -92.2382 0)
(311.858 -92.1542 0)
(311.86 -92.0678 0)
(311.859 -91.9789 0)
(311.855 -91.8877 0)
(311.848 -91.7941 0)
(311.838 -91.6981 0)
(311.825 -91.5997 0)
(311.811 -91.4991 0)
(311.794 -91.3961 0)
(311.771 -91.2909 0)
(311.748 -91.1834 0)
(311.721 -91.0736 0)
(311.691 -90.9617 0)
(311.658 -90.8475 0)
(311.621 -90.7312 0)
(311.583 -90.6127 0)
(311.545 -90.4921 0)
(311.505 -90.3693 0)
(311.456 -90.2445 0)
(311.408 -90.1176 0)
(311.355 -89.9887 0)
(311.295 -89.8578 0)
(311.232 -89.7248 0)
(311.164 -89.5899 0)
(311.093 -89.4531 0)
(311.017 -89.3143 0)
(310.937 -89.1736 0)
(310.853 -89.0311 0)
(310.765 -88.8867 0)
(310.672 -88.7404 0)
(310.573 -88.5924 0)
(310.47 -88.4426 0)
(310.361 -88.291 0)
(310.246 -88.1377 0)
(310.124 -87.9826 0)
(309.996 -87.8259 0)
(309.86 -87.6675 0)
(309.718 -87.5074 0)
(309.567 -87.3457 0)
(309.408 -87.1824 0)
(309.241 -87.0175 0)
(309.066 -86.851 0)
(308.881 -86.6829 0)
(308.688 -86.5133 0)
(308.486 -86.3421 0)
(308.276 -86.1695 0)
(308.057 -85.9953 0)
(307.829 -85.8196 0)
(307.61 -85.6424 0)
(252.968 -62.8348 2.50798e-019)
(253.807 -61.8986 -4.58107e-016)
(255.257 -60.3063 9.05313e-016)
(256.465 -58.8975 -8.78809e-019)
(257.246 -57.8347 -4.41374e-016)
(257.939 -56.7901 2.12675e-019)
(258.7 -55.6188 -4.29663e-016)
(259.487 -54.3573 4.25423e-016)
(260.237 -53.0577 2.05398e-019)
(260.923 -51.7324 -4.14481e-016)
(261.537 -50.3709 8.20483e-016)
(262.07 -48.9575 -8.11021e-016)
(262.503 -47.4737 4.01567e-016)
(262.814 -45.8987 1.946e-019)
(262.976 -44.2055 3.91992e-016)
(262.963 -42.3629 -6.37037e-019)
(262.746 -40.3412 -3.85017e-016)
(262.3 -38.1091 3.80566e-016)
(261.596 -35.6494 -3.77172e-016)
(260.586 -32.9712 0)
(259.269 -30.0691 1.81695e-019)
(257.8 -26.8701 -3.62771e-016)
(256.156 -23.455 3.57618e-016)
(254.251 -19.9566 1.73236e-019)
(252.19 -16.3994 -3.44144e-016)
(250.036 -12.8505 3.38973e-016)
(247.834 -9.39518 -3.31642e-016)
(245.634 -6.11516 3.26928e-016)
(243.482 -3.0829 1.59095e-019)
(241.417 -0.358146 0)
(239.468 2.01575 0)
(237.65 4.01532 -3.0621e-016)
(235.973 5.63779 3.03463e-016)
(234.436 6.89826 2.98824e-016)
(233.029 7.82614 -2.96308e-016)
(231.74 8.46155 2.92007e-016)
(230.548 8.85048 -2.89831e-016)
(229.436 9.0403 0)
(228.382 9.0774 2.82632e-016)
(227.371 9.00449 -2.80834e-016)
(226.387 8.85887 -2.76988e-016)
(225.416 8.67122 2.75673e-016)
(224.457 8.47002 -2.71653e-016)
(223.513 8.27932 2.70426e-016)
(222.577 8.10844 0)
(221.626 7.95785 0)
(220.646 7.82791 1.32632e-019)
(219.633 7.71936 2.58571e-016)
(218.58 7.63137 -2.57321e-016)
(217.486 7.56214 -2.53522e-016)
(216.346 7.5096 5.03593e-016)
(215.161 7.47174 -2.50135e-016)
(213.929 7.44659 2.46198e-016)
(212.648 7.43142 -2.45409e-016)
(211.312 7.42292 2.41578e-016)
(209.918 7.418 -2.40799e-016)
(208.46 7.41399 1.22904e-019)
(206.933 7.4085 0)
(205.333 7.39946 0)
(203.657 7.38538 -2.2994e-016)
(201.9 7.36576 2.29671e-016)
(200.06 7.34116 -2.25359e-016)
(198.132 7.31251 2.2537e-016)
(196.11 7.27993 0)
(193.978 7.24091 0)
(191.696 7.18733 0)
(189.188 7.10072 -2.14304e-016)
(186.303 6.94582 2.1514e-016)
(182.786 6.66332 2.09308e-016)
(178.237 6.16509 -4.7487e-018)
(172.11 5.33898 -2.09565e-016)
(163.781 4.07168 1.13857e-019)
(152.731 2.29566 0)
(138.814 0.0507534 -1.91629e-016)
(122.487 -2.47519 2.01075e-016)
(104.795 -4.97428 9.19082e-017)
(87.0196 -7.12342 -9.67776e-017)
(70.2015 -8.70106 -8.83859e-017)
(54.8847 -9.63216 9.22819e-017)
(41.2111 -9.94755 0)
(29.1383 -9.71895 -8.36963e-017)
(18.7013 -9.00786 8.59998e-017)
(10.5572 -7.79428 -8.18073e-017)
(5.70922 -6.05785 8.25076e-017)
(3.1193 -4.00424 0)
(1.5165 -2.03998 0)
(0.584892 -0.729725 0)
(0.183734 -0.199317 0)
(0.0492903 -0.0427458 0)
(0.0120229 -0.00795253 -7.85958e-017)
(0.00280384 -0.00140783 7.81562e-017)
(0.000637021 -0.000244677 0)
(0.000142112 -4.19971e-005 0)
(3.12677e-005 -7.11241e-006 0)
(6.80484e-006 -1.18453e-006 0)
(1.4679e-006 -1.92971e-007 0)
(3.14341e-007 -3.0491e-008 0)
(6.69018e-008 -4.60508e-009 7.51976e-017)
(1.41636e-008 -6.46293e-010 -8.40359e-027)
(2.98468e-009 -7.85509e-011 -7.43933e-017)
(6.2535e-010 -6.38802e-012 0)
(1.30648e-010 5.34e-013 0)
(2.66408e-011 8.04462e-013 0)
(5.53385e-012 3.94994e-013 0)
(4.47781e-013 2.76599e-013 0)
(2.26864e-013 2.03599e-013 -7.20806e-017)
(-4.07684e-013 2.66933e-013 5.21752e-032)
(-1.86666e-013 2.2255e-013 1.29769e-032)
(-7.34308e-013 6.9541e-014 7.09773e-017)
(-9.37682e-013 2.43199e-013 0)
(-1.12858e-012 1.58858e-014 0)
(-1.52511e-012 8.79637e-014 0)
(-1.18374e-012 1.77555e-013 0)
(-1.3844e-012 -1.76898e-014 0)
(-1.12327e-012 2.57941e-013 0)
(-1.3112e-012 1.05543e-014 0)
(-9.71371e-013 2.97199e-013 -6.81939e-017)
(-8.17479e-013 1.08293e-013 1.23439e-032)
(-2.55865e-013 1.77473e-013 -1.2284e-032)
(-1.24044e-012 1.59879e-013 6.72056e-017)
(-7.17203e-014 1.46838e-013 0)
(-1.46195e-012 1.19307e-013 0)
(-2.36393e-013 5.60049e-014 0)
(-1.45187e-012 2.895e-014 0)
(-6.70933e-013 1.03427e-013 -3.28103e-017)
(-1.66055e-012 5.62862e-014 3.26562e-017)
(-5.51977e-013 1.0736e-013 3.25036e-017)
(-1.5154e-012 -2.5443e-014 -6.47049e-017)
(-7.3269e-013 -2.87019e-014 3.22027e-017)
(-1.82037e-012 -6.59623e-014 3.20543e-017)
(-1.03675e-012 2.25836e-014 -3.19072e-017)
(-2.12362e-012 -6.84821e-014 0)
(-1.63154e-012 -1.96846e-014 0)
(-1.74431e-012 -3.73346e-014 0)
(-1.90001e-012 -7.26902e-014 3.13323e-017)
(-1.43834e-012 -4.08837e-014 -3.11918e-017)
(-1.49374e-012 8.77112e-014 1.55263e-017)
(-1.03378e-012 -6.90872e-014 -1.54573e-017)
(-1.35158e-012 8.10855e-014 0)
(-1.05926e-012 -8.93634e-014 0)
(-1.63113e-012 9.99679e-016 0)
(-1.18547e-012 5.65338e-014 1.51873e-017)
(-1.82317e-012 -1.44089e-013 -1.51213e-017)
(-1.33821e-012 1.18601e-013 0)
(-1.74354e-012 -1.15732e-013 7.49545e-018)
(-1.10295e-012 3.11076e-014 0)
(-1.60313e-012 -1.10457e-013 -7.43139e-018)
(-1.28633e-012 -3.41405e-014 0)
(-1.54652e-012 3.7859e-014 0)
(-1.87112e-012 -2.462e-014 0)
(306.71 -84.3729 -2.7681e-020)
(306.295 -83.0816 0)
(305.855 -81.7773 -2.76771e-020)
(305.296 -80.4654 -2.76463e-020)
(304.659 -79.147 0)
(304.003 -77.8244 -2.76311e-020)
(303.373 -76.5006 0)
(302.79 -75.1783 -2.76226e-020)
(302.262 -73.8598 -2.76185e-020)
(301.784 -72.5468 0)
(301.349 -71.2409 -2.76129e-020)
(300.947 -69.9437 0)
(300.573 -68.657 -2.76097e-020)
(300.222 -67.3822 -2.76082e-020)
(299.893 -66.1209 0)
(299.585 -64.8747 -2.7605e-020)
(299.298 -63.6452 0)
(299.035 -62.434 -2.76023e-020)
(298.794 -61.243 -2.75994e-020)
(298.578 -60.074 0)
(298.384 -58.9291 -2.75847e-020)
(298.211 -57.8107 -2.75868e-020)
(298.056 -56.724 0)
(297.919 -55.6726 -2.757e-020)
(297.803 -54.662 0)
(297.712 -53.6987 -2.75506e-020)
(297.652 -52.7907 -2.75353e-020)
(297.627 -51.947 0)
(297.641 -51.1774 -2.74948e-020)
(297.693 -50.4922 0)
(297.784 -49.9019 0)
(297.907 -49.4159 -2.74151e-020)
(298.059 -49.0425 0)
(298.224 -48.7873 -2.73476e-020)
(298.397 -48.6532 0)
(298.598 -48.6394 -2.72491e-020)
(298.81 -48.7407 0)
(299.011 -48.9479 0)
(299.206 -49.2473 0)
(299.391 -49.621 -2.69784e-020)
(299.559 -50.0479 0)
(299.712 -50.5041 -2.68723e-020)
(299.861 -50.9642 0)
(299.973 -51.4028 -2.67973e-020)
(300.067 -51.7957 0)
(300.189 -52.1195 0)
(300.327 -52.3543 -2.67372e-020)
(300.474 -52.484 0)
(300.626 -52.4974 -2.66685e-020)
(300.78 -52.388 0)
(300.932 -52.1539 0)
(301.08 -51.797 0)
(301.224 -51.3227 0)
(301.363 -50.7392 0)
(301.494 -50.056 -2.63135e-020)
(301.617 -49.2841 0)
(301.735 -48.4346 -2.61631e-020)
(301.85 -47.5184 0)
(301.963 -46.5456 0)
(302.076 -45.5254 0)
(302.192 -44.4658 0)
(302.315 -43.3738 -2.57333e-020)
(302.447 -42.2548 0)
(302.592 -41.1135 0)
(302.753 -39.9533 0)
(302.931 -38.7768 0)
(303.125 -37.5856 0)
(303.332 -36.3798 -2.49783e-020)
(303.547 -35.1577 0)
(303.76 -33.915 -2.45005e-020)
(303.963 -32.6432 0)
(304.138 -31.3296 -2.365e-020)
(304.24 -29.9564 0)
(304.215 -28.5031 0)
(304.055 -26.95 0)
(303.795 -25.2818 0)
(303.46 -23.4912 0)
(303.055 -21.5793 0)
(302.563 -19.554 0)
(301.899 -17.4269 0)
(300.893 -15.2112 0)
(299.22 -12.9209 0)
(296.131 -10.5713 0)
(289.768 -8.18473 0)
(274.193 -5.78616 0)
(230.461 -3.39943 0)
(140.994 -1.33201 0)
(52.234 -0.309759 0)
(13.3833 -0.0537677 0)
(2.84405 -0.00959334 0)
(0.550331 -0.0017756 0)
(0.103495 -0.000330586 0)
(0.0193408 -6.16013e-005 0)
(0.00360986 -1.14793e-005 0)
(0.000673596 -2.13891e-006 0)
(0.000125686 -3.98485e-007 0)
(2.34517e-005 -7.42271e-008 0)
(4.37586e-006 -1.38239e-008 0)
(8.16493e-007 -2.57387e-009 0)
(1.52345e-007 -4.78846e-010 0)
(2.84249e-008 -8.88648e-011 0)
(5.30084e-009 -1.6367e-011 0)
(9.88749e-010 -2.67e-012 0)
(1.82268e-010 -3.41939e-013 0)
(3.30447e-011 1.94938e-013 0)
(4.1999e-012 2.13496e-013 0)
(-1.46814e-012 2.38613e-013 0)
(-2.40245e-012 2.98833e-013 0)
(-2.383e-012 1.19485e-013 0)
(-3.26714e-012 3.13206e-013 0)
(-1.36195e-012 9.36342e-014 0)
(-3.91159e-012 2.73148e-013 0)
(-4.32846e-013 2.47852e-013 0)
(-3.21595e-012 1.13061e-013 0)
(-1.64387e-012 3.3661e-013 0)
(-1.94925e-012 1.22429e-013 0)
(-3.09815e-012 2.78601e-013 0)
(-1.28225e-012 1.97332e-013 0)
(-3.44282e-012 1.67539e-013 0)
(-1.63177e-012 2.53142e-013 0)
(-2.93405e-012 1.45749e-013 0)
(-2.64199e-012 1.89425e-013 0)
(-2.51808e-012 5.92214e-014 0)
(-3.60995e-012 1.24153e-013 0)
(-2.60277e-012 1.93815e-013 0)
(-2.30695e-012 6.83952e-014 0)
(-2.71467e-012 1.3456e-013 0)
(-1.22203e-012 4.90258e-014 0)
(-2.95352e-012 3.3939e-014 0)
(-8.56429e-013 3.31949e-015 0)
(-3.50761e-012 1.38316e-014 0)
(-1.07431e-012 8.33048e-014 0)
(-2.50865e-012 2.1219e-014 0)
(-1.59622e-012 4.82052e-014 0)
(-1.73479e-012 -3.84528e-014 0)