/*--------------------------------*- C++ -*----------------------------------*\
| =========                 |                                                 |
| \\      /  F ield         | OpenFOAM: The Open Source CFD Toolbox           |
|  \\    /   O peration     | Version:  5.x                                   |
|   \\  /    A nd           | Web:      www.OpenFOAM.org                      |
|    \\/     M anipulation  |                                                 |
\*---------------------------------------------------------------------------*/
/*   Windows 32 and 64 bit porting by blueCAPE: http://www.bluecape.com.pt   *\
|  Based on Windows porting (2.0.x v4) by Symscape: http://www.symscape.com   |
\*---------------------------------------------------------------------------*/
FoamFile
{
    version     2.0;
    format      ascii;
    class       volScalarField;
    location    "0.0035";
    object      mag(U);
}
// * * * * * * * * * * * * * * * * * * * * * * * * * * * * * * * * * * * * * //

dimensions      [0 1 -1 0 0 0 0];

internalField   nonuniform List<scalar> 
100
(
3.201
20.5805
97.3963
244.983
303.434
187.912
3.20099
20.5806
97.3924
245.023
303.118
186.625
3.20098
20.5808
97.3883
245.071
302.766
185.491
3.20098
20.5809
97.3851
245.113
302.474
187.148
3.20098
20.581
97.3828
245.145
302.245
197.424
3.20097
20.5812
97.3777
245.215
301.59
215.166
3.20095
20.5816
97.366
245.335
300.689
213.263
3.20093
20.582
97.3513
245.457
299.865
211.503
3.20092
20.5822
97.3449
245.506
299.485
210.781
3.20092
20.5822
97.3435
245.517
299.403
210.626
134.061
88.6136
136.565
87.1839
138.935
87.3933
139.963
87.9099
140.193
88.0694
3.56379
1.87364
0.106843
9.19212
3.07511
0.171317
13.8799
4.41119
0.240658
17.9491
5.5365
0.301186
25.2062
6.49417
0.349092
54.1598
7.80162
0.455145
50.3887
8.66005
0.544383
49.1986
9.74532
0.605979
49.2959
10.0972
0.621494
49.3581
10.1653
0.624462
)
;

boundaryField
{
    inlet
    {
        type            calculated;
        value           nonuniform List<scalar> 10(3.20097 3.20095 3.20093 3.20092 3.20092 3.201 3.20099 3.20098 3.20098 3.20098);
    }
    outlet
    {
        type            calculated;
        value           nonuniform List<scalar> 10(0.455145 0.544383 0.605979 0.621494 0.624462 0.106843 0.171317 0.240658 0.301186 0.349092);
    }
    bottom
    {
        type            symmetryPlane;
    }
    top
    {
        type            symmetryPlane;
    }
    obstacle
    {
        type            calculated;
        value           nonuniform List<scalar> 
12
(
187.912
186.625
185.491
187.148
197.424
3.56379
9.19212
13.8799
17.9491
25.2062
134.061
88.6136
)
;
    }
    defaultFaces
    {
        type            empty;
    }
}


// ************************************************************************* //
