/*--------------------------------*- C++ -*----------------------------------*\
| =========                 |                                                 |
| \\      /  F ield         | OpenFOAM: The Open Source CFD Toolbox           |
|  \\    /   O peration     | Version:  5.x                                   |
|   \\  /    A nd           | Web:      www.OpenFOAM.org                      |
|    \\/     M anipulation  |                                                 |
\*---------------------------------------------------------------------------*/
/*   Windows 32 and 64 bit porting by blueCAPE: http://www.bluecape.com.pt   *\
|  Based on Windows porting (2.0.x v4) by Symscape: http://www.symscape.com   |
\*---------------------------------------------------------------------------*/
FoamFile
{
    version     2.0;
    format      ascii;
    class       volScalarField;
    location    "0.0035";
    object      p;
}
// * * * * * * * * * * * * * * * * * * * * * * * * * * * * * * * * * * * * * //

dimensions      [1 -1 -2 0 0 0 0];

internalField   nonuniform List<scalar> 
100
(
99060.6
89233.3
67733
43576.4
31406.5
17706.8
99060.6
89233.4
67732
43585.3
31359.8
17875.9
99060.6
89233.4
67731
43595
31303
18054
99060.6
89233.4
67730.2
43603.1
31253.9
18194.3
99060.6
89233.5
67729.6
43608.9
31217.6
18308.5
99060.6
89233.5
67728.3
43621.8
31139.3
18624.1
99060.6
89233.6
67725.2
43654.6
30992
19098.1
99060.6
89233.8
67721.2
43707.2
30814.5
19627.6
99060.6
89233.9
67719.4
43736.9
30726.8
19932.7
99060.6
89234
67719
43744.4
30704.9
20007.3
15386.3
14047.6
15482.1
14143.6
15696.2
14271.3
15832.6
14354.6
15869.5
14375.6
10422.2
10085.3
10007
10541.5
10116.6
10008.4
10685.9
10156.2
10009.9
10812.4
10193
10011.2
10920.9
10222.1
10012.1
11231.3
10285.1
10014.3
11568.6
10348.5
10018.2
11828.9
10396.4
10022.2
11926.1
10410.5
10023.5
11945.3
10413.3
10023.8
)
;

boundaryField
{
    inlet
    {
        type            zeroGradient;
    }
    outlet
    {
        type            zeroGradient;
    }
    bottom
    {
        type            symmetryPlane;
    }
    top
    {
        type            symmetryPlane;
    }
    obstacle
    {
        type            zeroGradient;
    }
    defaultFaces
    {
        type            empty;
    }
}


// ************************************************************************* //
