/*--------------------------------*- C++ -*----------------------------------*\
| =========                 |                                                 |
| \\      /  F ield         | OpenFOAM: The Open Source CFD Toolbox           |
|  \\    /   O peration     | Version:  5.x                                   |
|   \\  /    A nd           | Web:      www.OpenFOAM.org                      |
|    \\/     M anipulation  |                                                 |
\*---------------------------------------------------------------------------*/
/*   Windows 32 and 64 bit porting by blueCAPE: http://www.bluecape.com.pt   *\
|  Based on Windows porting (2.0.x v4) by Symscape: http://www.symscape.com   |
\*---------------------------------------------------------------------------*/
FoamFile
{
    version     2.0;
    format      ascii;
    class       surfaceScalarField;
    location    "0.0035";
    object      phi;
}
// * * * * * * * * * * * * * * * * * * * * * * * * * * * * * * * * * * * * * //

dimensions      [1 0 -1 0 0 0 0];

internalField   nonuniform List<scalar> 
174
(
3.22749
1.50073e-005
14.3938
-0.00100684
24.6229
0.0120919
19.8144
-0.146557
8.66434
0.487407
-1.52308
2.15837
2.36174e-005
9.62551
-0.00152178
16.4689
0.0190099
13.2321
-0.230653
5.77922
0.843067
-2.57433
1.44339
2.77865e-005
6.43684
-0.00177432
11.0155
0.0225552
8.83439
-0.274171
3.85697
1.09861
-3.29513
0.96526
2.96337e-005
4.3045
-0.00189686
7.36768
0.0242977
5.89937
-0.295277
2.59814
1.25545
-3.79123
0.64551
3.04164e-005
2.87856
-0.00195626
4.92764
0.0251642
3.94012
-0.304894
1.80007
1.29965
-4.12813
2.73981
2.89586e-005
12.2174
-0.00203245
20.922
0.0243051
16.6765
-0.306645
8.12628
1.02046
-3.19662
3.99576
4.87223
1.68397e-005
21.7248
-0.00153894
37.2252
0.0160989
29.5432
-0.232609
14.4806
0.602307
-1.86151
7.24544
8.66432
5.10427e-006
38.6303
-0.000602331
66.2384
0.00585889
52.3539
-0.0928826
25.8133
0.221649
-0.689108
13.1927
15.4077
6.48388e-007
68.6936
-0.00011499
117.825
0.00103678
92.956
-0.0185612
46.0033
0.0418339
-0.129575
23.7433
27.3991
122.156
209.54
165.246
81.8528
42.3439
2.76576
-0.350747
-0.136815
1.62134
4.95548
-0.235595
-0.113992
2.84303
8.97894
-0.0936056
-0.0456023
5.0825
16.1526
-0.0185759
-0.00944489
9.1214
28.8083
16.2615
0.0481627
-0.261455
0.0283395
-0.173704
-0.0249876
0.0443071
-0.474431
0.02608
-0.324169
-0.040416
0.0401744
-0.647837
0.023311
-0.453531
-0.049339
0.0399063
-0.779448
0.0191483
-0.550968
-0.0543687
0.0709099
-0.86729
0.0151983
-0.583401
-0.0567084
0.78169
-0.551078
0.0975051
-0.345454
-0.0469115
1.37826
-0.257778
0.213969
-0.133486
-0.0262421
2.46957
-0.0703739
0.433395
-0.0361143
-0.00842672
4.43562
-0.010358
0.798644
-0.00465639
-0.00126818
7.90768
1.42956
)
;

boundaryField
{
    inlet
    {
        type            calculated;
        value           nonuniform List<scalar> 10(-0.511013 -0.90872 -1.61595 -2.8736 -5.11006 -0.601992 -0.402576 -0.269218 -0.180037 -0.120398);
    }
    outlet
    {
        type            calculated;
        value           nonuniform List<scalar> 10(0.00861031 0.0189019 0.0378651 0.0691607 0.123576 0.00236287 0.00232703 0.00220487 0.00188628 0.00148468);
    }
    bottom
    {
        type            symmetryPlane;
        value           uniform 0;
    }
    top
    {
        type            symmetryPlane;
        value           uniform 0;
    }
    obstacle
    {
        type            calculated;
        value           nonuniform List<scalar> 
12
(
6.3295
4.22774
2.82625
1.91586
1.35661
-0.0392767
-0.0362228
-0.0330191
-0.0354574
-0.0761504
0.375776
0.122685
)
;
    }
    defaultFaces
    {
        type            empty;
        value           nonuniform 0();
    }
}


// ************************************************************************* //
