/*--------------------------------*- C++ -*----------------------------------*\
| =========                 |                                                 |
| \\      /  F ield         | OpenFOAM: The Open Source CFD Toolbox           |
|  \\    /   O peration     | Version:  5.x                                   |
|   \\  /    A nd           | Web:      www.OpenFOAM.org                      |
|    \\/     M anipulation  |                                                 |
\*---------------------------------------------------------------------------*/
/*   Windows 32 and 64 bit porting by blueCAPE: http://www.bluecape.com.pt   *\
|  Based on Windows porting (2.0.x v4) by Symscape: http://www.symscape.com   |
\*---------------------------------------------------------------------------*/
FoamFile
{
    version     2.0;
    format      ascii;
    class       volScalarField;
    location    "0.0035";
    object      T;
}
// * * * * * * * * * * * * * * * * * * * * * * * * * * * * * * * * * * * * * //

dimensions      [0 0 0 1 0 0 0];

internalField   nonuniform List<scalar> 
100
(
347.464
337.306
298.664
360.492
391.239
348.015
347.464
337.306
298.663
360.515
391.2
348.736
347.464
337.306
298.662
360.541
391.138
349.471
347.464
337.306
298.661
360.562
391.087
349.907
347.464
337.306
298.66
360.576
391.088
350.631
347.464
337.306
298.659
360.591
391.302
351.735
347.464
337.306
298.655
360.674
391.147
353.56
347.464
337.306
298.65
360.808
390.846
355.569
347.464
337.306
298.648
360.884
390.672
356.813
347.464
337.306
298.648
360.903
390.623
357.124
314.242
306.873
314.804
307.545
316.048
308.368
316.919
308.889
317.159
309.02
282.069
279.426
278.802
282.986
279.675
278.813
284.086
279.989
278.825
285.056
280.283
278.836
286.091
280.541
278.843
288.589
281.098
278.861
290.967
281.607
278.893
292.785
281.99
278.925
293.471
282.105
278.936
293.607
282.128
278.938
)
;

boundaryField
{
    inlet
    {
        type            zeroGradient;
    }
    outlet
    {
        type            zeroGradient;
    }
    bottom
    {
        type            symmetryPlane;
    }
    top
    {
        type            symmetryPlane;
    }
    obstacle
    {
        type            zeroGradient;
    }
    defaultFaces
    {
        type            empty;
    }
}


// ************************************************************************* //
