/*--------------------------------*- C++ -*----------------------------------*\
| =========                 |                                                 |
| \\      /  F ield         | OpenFOAM: The Open Source CFD Toolbox           |
|  \\    /   O peration     | Version:  5.x                                   |
|   \\  /    A nd           | Web:      www.OpenFOAM.org                      |
|    \\/     M anipulation  |                                                 |
\*---------------------------------------------------------------------------*/
/*   Windows 32 and 64 bit porting by blueCAPE: http://www.bluecape.com.pt   *\
|  Based on Windows porting (2.0.x v4) by Symscape: http://www.symscape.com   |
\*---------------------------------------------------------------------------*/
FoamFile
{
    version     2.0;
    format      ascii;
    class       volVectorField;
    location    "0.0035";
    object      U;
}
// * * * * * * * * * * * * * * * * * * * * * * * * * * * * * * * * * * * * * //

dimensions      [0 1 -1 0 0 0 0];

internalField   nonuniform List<vector> 
100
(
(3.201 1.5767e-006 0)
(20.5805 -0.000162135 0)
(97.3963 0.00304768 0)
(244.983 -0.0975068 0)
(303.434 0.625699 0)
(187.856 -4.61477 0)
(3.20099 4.05661e-006 0)
(20.5806 -0.000400355 0)
(97.3924 0.00782318 0)
(245.022 -0.247799 0)
(303.113 1.75218 0)
(186.231 -12.1146 0)
(3.20098 5.38866e-006 0)
(20.5808 -0.000514492 0)
(97.3883 0.0104258 0)
(245.07 -0.328218 0)
(302.755 2.60871 0)
(184.704 -17.0626 0)
(3.20098 6.00618e-006 0)
(20.5809 -0.000571114 0)
(97.3851 0.0117217 0)
(245.112 -0.368961 0)
(302.457 3.17016 0)
(185.997 -20.718 0)
(3.20098 6.28632e-006 0)
(20.581 -0.000599369 0)
(97.3828 0.0124227 0)
(245.145 -0.389858 0)
(302.224 3.51999 0)
(196.073 -23.058 0)
(3.20097 6.3489e-006 0)
(20.5812 -0.000637162 0)
(97.3777 0.0126296 0)
(245.215 -0.405451 0)
(301.573 3.20698 0)
(214.168 -20.6986 0)
(3.20095 4.74767e-006 0)
(20.5816 -0.000566993 0)
(97.366 0.0101178 0)
(245.335 -0.352193 0)
(300.682 2.12314 0)
(212.936 -11.8101 0)
(3.20093 1.82006e-006 0)
(20.582 -0.0002872 0)
(97.3513 0.00463436 0)
(245.457 -0.180819 0)
(299.864 0.931735 0)
(211.444 -5.02514 0)
(3.20092 2.50429e-007 0)
(20.5822 -5.95618e-005 0)
(97.3449 0.000888245 0)
(245.506 -0.0398494 0)
(299.485 0.190841 0)
(210.778 -1.12489 0)
(3.20092 1.80194e-008 0)
(20.5822 -6.72014e-006 0)
(97.3435 9.33729e-005 0)
(245.517 -0.00451624 0)
(299.403 0.0213368 0)
(210.626 -0.121529 0)
(133.768 -8.85671 0)
(88.559 -3.11084 0)
(136.417 -6.34899 0)
(87.1179 -3.39302 0)
(138.902 -3.04829 0)
(87.3782 -1.62368 0)
(139.962 -0.683723 0)
(87.9091 -0.379939 0)
(140.193 -0.0768299 0)
(88.0694 -0.0423192 0)
(1.63913 -3.16447 0)
(1.75315 -0.661049 0)
(0.102057 -0.031618 0)
(2.23749 -8.91565 0)
(2.39349 -1.93068 0)
(0.150006 -0.0827504 0)
(3.01458 -13.5486 0)
(3.1775 -3.05975 0)
(0.212243 -0.113442 0)
(4.77377 -17.3026 0)
(3.88333 -3.9462 0)
(0.27129 -0.130823 0)
(15.0872 -20.1923 0)
(4.59086 -4.59328 0)
(0.319129 -0.141499 0)
(51.828 -15.7208 0)
(6.90916 -3.62336 0)
(0.435368 -0.132709 0)
(49.8718 -7.19875 0)
(8.53904 -1.44263 0)
(0.537154 -0.0884213 0)
(49.1382 -2.43865 0)
(9.73479 -0.453001 0)
(0.605023 -0.0340341 0)
(49.2943 -0.386991 0)
(10.0971 -0.0609752 0)
(0.62147 -0.00542934 0)
(49.358 -0.0370937 0)
(10.1653 -0.00567119 0)
(0.624462 -0.000521325 0)
)
;

boundaryField
{
    inlet
    {
        type            zeroGradient;
    }
    outlet
    {
        type            zeroGradient;
    }
    bottom
    {
        type            symmetryPlane;
    }
    top
    {
        type            symmetryPlane;
    }
    obstacle
    {
        type            zeroGradient;
    }
    defaultFaces
    {
        type            empty;
    }
}


// ************************************************************************* //
