/*--------------------------------*- C++ -*----------------------------------*\
| =========                 |                                                 |
| \\      /  F ield         | OpenFOAM: The Open Source CFD Toolbox           |
|  \\    /   O peration     | Version:  5.x                                   |
|   \\  /    A nd           | Web:      www.OpenFOAM.org                      |
|    \\/     M anipulation  |                                                 |
\*---------------------------------------------------------------------------*/
/*   Windows 32 and 64 bit porting by blueCAPE: http://www.bluecape.com.pt   *\
|  Based on Windows porting (2.0.x v4) by Symscape: http://www.symscape.com   |
\*---------------------------------------------------------------------------*/
FoamFile
{
    version     2.0;
    format      ascii;
    class       volScalarField;
    location    "0.004";
    object      mag(U);
}
// * * * * * * * * * * * * * * * * * * * * * * * * * * * * * * * * * * * * * //

dimensions      [0 1 -1 0 0 0 0];

internalField   nonuniform List<scalar> 
1000
(
1.60853e-012
1.90632e-012
1.78852e-012
1.73607e-012
1.86408e-012
2.00851e-012
2.01344e-012
1.53425e-012
1.77847e-012
1.70719e-012
1.93679e-012
1.75735e-012
1.67495e-012
1.73701e-012
1.79392e-012
1.91185e-012
1.64551e-012
1.72155e-012
1.60833e-012
1.45625e-012
1.51483e-012
1.3154e-012
1.53527e-012
1.44547e-012
1.65114e-012
1.4855e-012
1.43214e-012
1.52445e-012
1.34792e-012
1.46978e-012
1.40552e-012
1.44624e-012
1.3727e-012
1.37812e-012
1.72976e-012
1.43963e-012
1.46469e-012
1.54559e-012
1.60502e-012
1.66366e-012
1.68169e-012
1.8941e-012
1.62556e-012
1.83793e-012
1.70813e-012
1.76174e-012
1.6816e-012
1.87449e-012
1.73163e-012
1.73614e-012
1.75676e-012
1.8119e-012
1.70175e-012
1.71849e-012
1.77176e-012
1.71033e-012
1.88639e-012
1.79873e-012
1.72428e-012
1.88936e-012
1.69821e-012
1.89969e-012
1.73243e-012
1.77293e-012
1.79542e-012
1.72732e-012
1.95508e-012
1.92218e-012
1.76946e-012
2.04579e-012
1.60159e-012
1.69265e-012
1.69078e-012
1.57569e-012
1.56429e-012
1.51153e-012
1.81468e-012
1.60443e-012
1.75554e-012
1.55007e-012
1.52062e-012
1.60621e-012
1.63734e-012
1.69809e-012
1.69115e-012
1.67244e-012
1.72928e-012
1.77393e-012
1.83552e-012
1.75664e-012
1.78786e-012
1.76948e-012
1.76381e-012
1.84764e-012
1.75523e-012
1.77004e-012
1.83933e-012
1.86578e-012
2.02833e-012
3.82639e-012
7.71366e-012
2.06444e-011
5.71239e-011
1.60419e-010
4.46895e-010
1.22947e-009
3.33671e-009
8.9303e-009
2.35645e-008
6.12909e-008
1.57072e-007
3.96487e-007
9.85433e-007
2.4106e-006
5.80161e-006
1.37311e-005
3.19449e-005
7.30161e-005
0.000163882
0.000360989
0.000779912
0.00165159
0.00342575
0.00695465
0.0138069
0.026781
0.0507028
0.0935942
0.168258
0.294225
0.499821
0.823814
1.31585
2.03465
3.04323
4.40097
6.15349
8.32226
10.8971
13.8388
17.0927
20.6039
24.3245
28.2152
32.2451
36.39
40.6314
44.9548
49.3486
53.8039
58.3131
62.87
67.4696
72.1072
76.779
81.4815
86.2115
90.966
95.7425
100.538
105.351
110.179
115.019
119.87
124.729
129.595
134.466
139.341
144.217
149.092
153.967
158.836
163.705
168.558
173.414
178.249
183.076
187.894
192.685
197.464
202.222
206.949
211.65
216.323
220.954
225.543
230.087
234.578
239.003
243.357
247.633
251.816
255.892
259.846
263.664
267.328
270.813
274.1
277.166
279.991
282.552
284.83
286.812
288.491
289.869
290.962
291.787
292.361
292.751
292.992
293.115
293.171
293.182
293.171
293.139
293.089
293.034
293
292.987
292.973
292.964
292.964
292.977
293.001
293.034
293.065
293.082
293.091
293.102
293.107
293.111
293.119
293.125
293.129
293.131
293.134
293.137
293.142
293.154
293.18
293.244
293.397
293.548
293.415
293.109
292.953
292.935
292.98
293.028
293.066
293.088
293.1
293.104
293.103
293.1
293.093
293.086
293.079
293.079
293.087
293.091
293.09
293.089
293.088
293.088
293.089
293.092
293.096
293.101
293.107
293.113
293.117
293.118
293.115
293.109
293.096
293.074
293.039
292.986
292.898
292.738
292.449
291.922
290.944
289.067
285.334
277.667
260.063
208.077
106.908
29.9245
6.21471
1.13129
0.195614
0.0334664
0.00571464
0.000975561
0.000166542
2.85144e-005
4.2345e-006
1.56715e-012
1.50682e-012
1.72101e-012
1.51888e-012
1.62335e-012
1.39619e-012
1.47527e-012
1.34996e-012
1.53723e-012
1.41446e-012
1.62373e-012
1.75002e-012
1.66586e-012
1.77677e-012
1.71064e-012
1.60593e-012
1.64699e-012
1.45198e-012
1.37344e-012
1.464e-012
1.34078e-012
1.51564e-012
1.55388e-012
1.58136e-012
1.81724e-012
1.33933e-012
1.34244e-012
1.41529e-012
1.48064e-012
1.63581e-012
1.53884e-012
1.39952e-012
1.90861e-012
2.23559e-012
3.23386e-012
2.56214e-012
3.32012e-012
3.47186e-012
3.89368e-012
4.12659e-012
2.90236e-012
3.39246e-012
3.00981e-012
2.56547e-012
2.31241e-012
1.80919e-012
1.83673e-012
1.84437e-012
1.73076e-012
1.73385e-012
1.80456e-012
1.75735e-012
1.763e-012
1.68631e-012
1.70219e-012
1.70891e-012
1.88935e-012
1.84584e-012
1.92296e-012
1.78996e-012
1.84267e-012
1.78263e-012
1.71953e-012
1.73133e-012
1.66381e-012
1.72797e-012
1.68257e-012
1.6642e-012
1.65449e-012
1.63591e-012
1.61029e-012
1.55977e-012
1.56864e-012
1.53657e-012
1.55606e-012
1.53045e-012
1.72159e-012
1.5309e-012
2.2234e-012
2.05887e-012
2.74864e-012
2.2054e-012
2.63803e-012
3.04553e-012
2.61271e-012
2.7321e-012
2.09771e-012
2.26934e-012
2.06247e-012
1.86717e-012
1.90786e-012
1.79244e-012
1.79806e-012
1.89982e-012
1.88004e-012
1.76613e-012
1.84943e-012
2.08927e-012
3.17384e-012
4.26224e-012
8.60422e-012
2.18436e-011
5.77847e-011
1.62075e-010
4.48299e-010
1.23095e-009
3.33777e-009
8.93117e-009
2.35653e-008
6.12909e-008
1.57072e-007
3.96487e-007
9.85433e-007
2.4106e-006
5.80161e-006
1.37311e-005
3.19449e-005
7.30161e-005
0.000163882
0.000360989
0.000779912
0.00165159
0.00342575
0.00695465
0.0138069
0.026781
0.0507028
0.0935942
0.168258
0.294225
0.499821
0.823814
1.31585
2.03465
3.04323
4.40097
6.15349
8.32226
10.8971
13.8388
17.0927
20.6039
24.3245
28.2152
32.2451
36.39
40.6314
44.9548
49.3486
53.8039
58.3131
62.87
67.4696
72.1072
76.779
81.4815
86.2115
90.966
95.7425
100.538
105.351
110.179
115.019
119.87
124.729
129.595
134.466
139.341
144.217
149.092
153.967
158.836
163.705
168.558
173.414
178.249
183.076
187.894
192.685
197.464
202.222
206.949
211.65
216.323
220.954
225.543
230.087
234.578
239.003
243.357
247.633
251.816
255.892
259.846
263.664
267.328
270.813
274.1
277.166
279.991
282.552
284.83
286.812
288.491
289.869
290.962
291.787
292.361
292.751
292.992
293.115
293.171
293.182
293.171
293.139
293.089
293.034
293
292.987
292.973
292.964
292.964
292.977
293.001
293.034
293.065
293.082
293.091
293.102
293.107
293.111
293.119
293.125
293.129
293.131
293.134
293.137
293.142
293.154
293.18
293.244
293.397
293.548
293.415
293.109
292.953
292.935
292.98
293.028
293.066
293.088
293.1
293.104
293.103
293.1
293.093
293.086
293.079
293.079
293.087
293.091
293.09
293.089
293.088
293.088
293.089
293.092
293.096
293.101
293.107
293.113
293.117
293.118
293.115
293.109
293.096
293.074
293.039
292.986
292.898
292.738
292.449
291.922
290.944
289.067
285.334
277.667
260.063
208.077
106.908
29.9245
6.21471
1.13129
0.195614
0.0334664
0.00571464
0.00097556
0.000166554
2.84216e-005
5.07555e-006
1.6964e-006
1.33699e-006
1.05059e-006
8.25568e-007
6.4873e-007
5.09768e-007
4.00572e-007
3.14766e-007
2.47342e-007
1.94361e-007
1.52729e-007
1.20017e-007
9.43108e-008
7.41125e-008
5.82391e-008
4.5767e-008
3.59656e-008
2.82636e-008
2.22106e-008
1.74548e-008
1.37176e-008
1.07805e-008
8.47218e-009
6.65875e-009
5.2323e-009
4.11266e-009
3.23302e-009
2.53963e-009
1.99648e-009
1.56996e-009
1.23327e-009
9.69798e-010
7.61808e-010
5.9923e-010
4.71329e-010
3.69634e-010
2.90946e-010
2.28929e-010
1.80316e-010
1.41105e-010
1.11497e-010
8.67571e-011
6.92189e-011
5.3748e-011
4.19448e-011
3.31424e-011
2.6674e-011
2.00055e-011
1.59377e-011
1.27368e-011
1.00027e-011
7.46871e-012
6.2017e-012
4.20115e-012
3.80104e-012
2.53403e-012
2.2006e-012
1.80049e-012
1.46707e-012
1.13364e-012
8.00219e-013
8.66904e-013
7.33534e-013
8.00219e-013
4.00109e-013
3.33424e-013
3.33424e-013
2.6674e-013
6.00164e-013
2.07756e-025
6.00164e-013
1.3337e-013
4.66794e-013
4.00109e-013
6.66849e-014
3.33424e-013
3.33424e-013
2.00055e-013
3.33424e-013
2.6674e-013
3.33424e-013
3.33424e-013
4.00109e-013
2.6674e-013
6.00164e-013
1.3337e-013
4.66794e-013
2.00055e-013
5.33479e-013
1.3337e-013
6.00164e-013
6.66849e-014
7.33534e-013
1.31178e-025
5.33479e-013
6.66849e-014
6.00164e-013
6.66849e-014
6.66849e-013
1.3337e-013
1.80152e-012
2.11885e-012
1.72207e-012
1.62399e-012
1.49986e-012
1.41603e-012
1.35183e-012
1.57835e-012
1.33154e-012
1.64751e-012
1.28627e-012
1.16322e-012
1.30824e-012
1.29193e-012
1.07822e-012
9.6875e-013
1.13386e-012
8.43819e-013
7.92093e-013
8.65508e-013
8.51486e-013
1.15393e-012
7.62334e-013
1.0242e-012
8.10614e-013
1.04094e-012
9.60459e-013
1.36532e-012
1.43644e-012
1.55589e-012
1.31115e-012
1.54095e-012
1.37857e-012
1.73277e-012
1.35291e-012
1.44725e-012
1.55102e-012
1.36695e-012
1.3766e-012
1.52546e-012
1.77729e-012
1.62217e-012
1.40376e-012
1.2988e-012
1.00895e-012
9.4936e-013
1.09579e-012
1.18694e-012
1.56676e-012
1.12561e-012
1.52543e-012
1.20942e-012
1.81852e-012
1.1162e-012
2.07551e-012
1.29267e-012
2.0183e-012
1.17651e-012
1.6682e-012
1.12222e-012
1.9824e-012
1.41888e-012
1.8518e-012
1.46436e-012
1.41824e-012
1.22769e-012
1.14506e-012
9.45579e-013
8.85955e-013
6.62508e-013
6.63687e-013
6.3938e-013
6.56989e-013
6.35031e-013
6.59708e-013
6.08323e-013
6.21681e-013
7.26288e-013
5.88436e-013
6.40049e-013
5.81006e-013
7.6719e-013
7.20232e-013
5.92141e-013
7.93342e-013
6.2302e-013
8.5743e-013
6.13093e-013
8.04393e-013
6.37398e-013
6.96163e-013
5.8096e-013
8.15928e-013
5.7098e-013
5.768e-013
5.81607e-013
6.01827e-013
5.99611e-013
6.3876e-013
6.16548e-013
7.29457e-013
6.26727e-013
8.93949e-013
6.15022e-013
8.13922e-013
6.42137e-013
7.4896e-013
6.40507e-013
8.77365e-013
8.41115e-013
6.36342e-013
7.37462e-013
6.46755e-013
8.18077e-013
6.55197e-013
6.54287e-013
7.06161e-013
6.97976e-013
6.57016e-013
6.64698e-013
6.55143e-013
6.51295e-013
6.42834e-013
6.29963e-013
6.42799e-013
7.16588e-013
6.33547e-013
8.006e-013
6.0177e-013
7.86908e-013
6.14835e-013
6.35102e-013
7.93064e-013
6.26104e-013
8.64666e-013
6.50954e-013
6.60791e-013
6.75565e-013
6.32118e-013
6.40003e-013
6.79683e-013
6.4515e-013
6.18444e-013
6.26722e-013
7.04057e-013
5.98159e-013
6.87378e-013
5.86727e-013
6.85683e-013
5.92178e-013
1.09552e-012
5.63204e-013
7.96126e-013
7.33822e-013
7.30326e-013
6.33685e-013
5.98852e-013
5.91047e-013
6.00683e-013
6.70558e-013
6.55738e-013
6.4812e-013
6.94822e-013
6.59275e-013
6.54346e-013
6.63523e-013
6.87098e-013
6.84968e-013
6.83058e-013
6.86639e-013
7.69896e-013
7.04761e-013
8.43157e-013
8.74354e-013
8.28655e-013
1.06402e-012
1.16875e-012
1.44206e-012
1.64015e-012
1.89473e-012
1.6681e-012
1.7094e-012
1.43414e-012
1.67407e-012
1.4846e-012
1.61216e-012
1.78718e-012
1.45764e-012
1.7646e-012
1.27524e-012
1.6823e-012
1.7786e-012
1.37397e-012
1.31572e-012
1.49471e-012
1.155e-012
1.0775e-012
8.01742e-013
8.86897e-013
8.58478e-013
8.40175e-013
8.0937e-013
1.00128e-012
8.58753e-013
9.65911e-013
9.19739e-013
1.15053e-012
1.32458e-012
1.51435e-012
2.02191e-012
1.55853e-012
2.51546e-012
2.07975e-012
2.82418e-012
2.18859e-012
2.65952e-012
2.33275e-012
1.97076e-012
1.86349e-012
1.72362e-012
1.59482e-012
1.41155e-012
1.54064e-012
1.24908e-012
1.55765e-012
1.07689e-012
1.17598e-012
1.18316e-012
8.94297e-013
7.42602e-013
6.09462e-013
5.99513e-013
5.76241e-013
5.8843e-013
7.49603e-013
5.53996e-013
6.44366e-013
6.97331e-013
6.32659e-013
7.28076e-013
7.1749e-013
6.04775e-013
6.02435e-013
5.74696e-013
5.97441e-013
7.0881e-013
6.01758e-013
7.61868e-013
6.77171e-013
6.16938e-013
6.52092e-013
7.72005e-013
6.1475e-013
5.98202e-013
7.10101e-013
6.25725e-013
7.12228e-013
7.66128e-013
8.06183e-013
6.87731e-013
7.54651e-013
6.60484e-013
6.32538e-013
6.49266e-013
7.92514e-013
6.17e-013
7.84199e-013
6.48944e-013
6.28701e-013
7.73617e-013
6.81353e-013
7.48784e-013
7.2775e-013
7.22175e-013
6.15434e-013
6.10736e-013
6.12489e-013
6.88953e-013
5.8934e-013
6.34053e-013
6.01991e-013
6.39397e-013
6.10027e-013
7.65095e-013
6.67487e-013
8.50973e-013
6.17581e-013
7.0264e-013
6.4312e-013
5.99014e-013
6.39114e-013
6.22609e-013
6.50929e-013
8.10547e-013
8.28555e-013
7.27286e-013
6.60322e-013
6.20992e-013
6.25302e-013
6.02601e-013
)
;

boundaryField
{
    inlet
    {
        type            calculated;
        value           nonuniform List<scalar> 2(1.56715e-012 1.60853e-012);
    }
    outlet
    {
        type            calculated;
        value           nonuniform List<scalar> 2(6.02601e-013 5.92178e-013);
    }
    bottom
    {
        type            symmetryPlane;
    }
    top
    {
        type            symmetryPlane;
    }
    obstacle
    {
        type            calculated;
        value           nonuniform List<scalar> 
102
(
4.2345e-006
1.80152e-012
1.6964e-006
1.33699e-006
1.05059e-006
8.25568e-007
6.4873e-007
5.09768e-007
4.00572e-007
3.14766e-007
2.47342e-007
1.94361e-007
1.52729e-007
1.20017e-007
9.43108e-008
7.41125e-008
5.82391e-008
4.5767e-008
3.59656e-008
2.82636e-008
2.22106e-008
1.74548e-008
1.37176e-008
1.07805e-008
8.47218e-009
6.65875e-009
5.2323e-009
4.11266e-009
3.23302e-009
2.53963e-009
1.99648e-009
1.56996e-009
1.23327e-009
9.69798e-010
7.61808e-010
5.9923e-010
4.71329e-010
3.69634e-010
2.90946e-010
2.28929e-010
1.80316e-010
1.41105e-010
1.11497e-010
8.67571e-011
6.92189e-011
5.3748e-011
4.19448e-011
3.31424e-011
2.6674e-011
2.00055e-011
1.59377e-011
1.27368e-011
1.00027e-011
7.46871e-012
6.2017e-012
4.20115e-012
3.80104e-012
2.53403e-012
2.2006e-012
1.80049e-012
1.46707e-012
1.13364e-012
8.00219e-013
8.66904e-013
7.33534e-013
8.00219e-013
4.00109e-013
3.33424e-013
3.33424e-013
2.6674e-013
6.00164e-013
2.07756e-025
6.00164e-013
1.3337e-013
4.66794e-013
4.00109e-013
6.66849e-014
3.33424e-013
3.33424e-013
2.00055e-013
3.33424e-013
2.6674e-013
3.33424e-013
3.33424e-013
4.00109e-013
2.6674e-013
6.00164e-013
1.3337e-013
4.66794e-013
2.00055e-013
5.33479e-013
1.3337e-013
6.00164e-013
6.66849e-014
7.33534e-013
1.31178e-025
5.33479e-013
6.66849e-014
6.00164e-013
6.66849e-014
6.66849e-013
1.3337e-013
)
;
    }
    defaultFaces
    {
        type            empty;
    }
}


// ************************************************************************* //
