/*--------------------------------*- C++ -*----------------------------------*\
| =========                 |                                                 |
| \\      /  F ield         | OpenFOAM: The Open Source CFD Toolbox           |
|  \\    /   O peration     | Version:  5.x                                   |
|   \\  /    A nd           | Web:      www.OpenFOAM.org                      |
|    \\/     M anipulation  |                                                 |
\*---------------------------------------------------------------------------*/
/*   Windows 32 and 64 bit porting by blueCAPE: http://www.bluecape.com.pt   *\
|  Based on Windows porting (2.0.x v4) by Symscape: http://www.symscape.com   |
\*---------------------------------------------------------------------------*/
FoamFile
{
    version     2.0;
    format      ascii;
    class       volVectorField;
    location    "0.004";
    object      U;
}
// * * * * * * * * * * * * * * * * * * * * * * * * * * * * * * * * * * * * * //

dimensions      [0 1 -1 0 0 0 0];

internalField   nonuniform List<vector> 
1000
(
(5.13473e-013 1.52437e-012 0)
(1.15531e-012 1.51635e-012 0)
(1.03278e-012 1.46019e-012 0)
(9.86101e-013 1.42883e-012 0)
(1.14948e-012 1.46748e-012 0)
(1.44123e-012 1.39892e-012 0)
(1.42372e-012 1.42372e-012 0)
(7.52705e-013 1.33693e-012 0)
(1.1028e-012 1.39528e-012 0)
(9.91936e-013 1.38944e-012 0)
(1.38871e-012 1.35005e-012 0)
(1.13197e-012 1.34422e-012 0)
(8.98578e-013 1.41351e-012 0)
(1.1028e-012 1.34203e-012 0)
(1.16698e-012 1.36245e-012 0)
(1.34787e-012 1.35589e-012 0)
(8.98578e-013 1.3785e-012 0)
(1.05612e-012 1.35954e-012 0)
(8.75238e-013 1.34933e-012 0)
(5.36813e-013 1.3537e-012 0)
(6.36006e-013 1.37485e-012 0)
(8.16889e-014 1.31286e-012 0)
(7.1186e-013 1.36027e-012 0)
(6.12667e-013 1.30921e-012 0)
(9.04413e-013 1.38142e-012 0)
(6.76851e-013 1.32234e-012 0)
(4.08444e-013 1.37266e-012 0)
(7.5854e-013 1.32234e-012 0)
(1.16698e-014 1.34787e-012 0)
(6.53511e-013 1.3165e-012 0)
(3.15086e-013 1.36975e-012 0)
(5.42648e-013 1.34057e-012 0)
(2.27562e-013 1.3537e-012 0)
(1.51708e-013 1.36975e-012 0)
(9.80267e-013 1.42518e-012 0)
(2.45067e-013 1.41861e-012 0)
(1.05029e-013 1.46092e-012 0)
(2.91746e-013 1.51781e-012 0)
(4.84298e-013 1.53021e-012 0)
(5.71822e-013 1.5623e-012 0)
(5.19308e-013 1.5995e-012 0)
(9.39422e-013 1.64472e-012 0)
(6.41841e-014 1.6243e-012 0)
(7.41035e-013 1.68192e-012 0)
(4.08444e-013 1.65858e-012 0)
(5.07638e-013 1.68702e-012 0)
(2.85911e-013 1.65712e-012 0)
(-8.11054e-013 1.68994e-012 0)
(-1.75048e-013 1.72276e-012 0)
(-5.83492e-014 1.73516e-012 0)
(3.09251e-013 1.72932e-012 0)
(6.18502e-013 1.70307e-012 0)
(4.14279e-013 1.65055e-012 0)
(3.38425e-013 1.68483e-012 0)
(5.36813e-013 1.68848e-012 0)
(4.31784e-013 1.65493e-012 0)
(7.4687e-013 1.73224e-012 0)
(6.94355e-013 1.65931e-012 0)
(2.91746e-013 1.69942e-012 0)
(8.63568e-013 1.68046e-012 0)
(2.91746e-014 1.69796e-012 0)
(8.46063e-013 1.70088e-012 0)
(5.07638e-013 1.65639e-012 0)
(6.36006e-013 1.65493e-012 0)
(6.76851e-013 1.66295e-012 0)
(5.54317e-013 1.63597e-012 0)
(1.03278e-012 1.66003e-012 0)
(1.07363e-012 1.59439e-012 0)
(7.0019e-013 1.62503e-012 0)
(1.29535e-012 1.58345e-012 0)
(3.3259e-013 1.56668e-012 0)
(6.65181e-013 1.55646e-012 0)
(6.53511e-013 1.55938e-012 0)
(2.91746e-013 1.54844e-012 0)
(4.08444e-014 1.56376e-012 0)
(2.91746e-014 1.51124e-012 0)
(9.04413e-013 1.57324e-012 0)
(5.89327e-013 1.49228e-012 0)
(7.93549e-013 1.56595e-012 0)
(2.33397e-013 1.5324e-012 0)
(1.75048e-013 1.51051e-012 0)
(3.09251e-013 1.57616e-012 0)
(3.03416e-013 1.60898e-012 0)
(4.55124e-013 1.63597e-012 0)
(2.50902e-013 1.67243e-012 0)
(-7.0019e-014 1.67098e-012 0)
(-3.73435e-013 1.68848e-012 0)
(-4.25949e-013 1.72203e-012 0)
(-5.30978e-013 1.75704e-012 0)
(2.91746e-013 1.73224e-012 0)
(1.63378e-013 1.78038e-012 0)
(-1.16698e-014 1.76944e-012 0)
(-1.45873e-013 1.75777e-012 0)
(-5.60152e-013 1.76069e-012 0)
(1.92552e-013 1.74464e-012 0)
(-1.22533e-013 1.76579e-012 0)
(-4.78463e-013 1.776e-012 0)
(6.06832e-013 1.76433e-012 0)
(9.27752e-013 1.80372e-012 0)
(3.36675e-012 1.81831e-012 0)
(7.49787e-012 1.81174e-012 0)
(2.05623e-011 1.84019e-012 0)
(5.70947e-011 1.82779e-012 0)
(1.60408e-010 1.86863e-012 0)
(4.46891e-010 1.86499e-012 0)
(1.22947e-009 1.89051e-012 0)
(3.33671e-009 1.91458e-012 0)
(8.9303e-009 1.88978e-012 0)
(2.35645e-008 1.93792e-012 0)
(6.12909e-008 1.90364e-012 0)
(1.57072e-007 1.91969e-012 0)
(3.96487e-007 1.9175e-012 0)
(9.85433e-007 1.95689e-012 0)
(2.4106e-006 1.92115e-012 0)
(5.80161e-006 1.94449e-012 0)
(1.37311e-005 1.91677e-012 0)
(3.19449e-005 1.92042e-012 0)
(7.30161e-005 1.84821e-012 0)
(0.000163882 1.88249e-012 0)
(0.000360989 1.84019e-012 0)
(0.000779912 1.80664e-012 0)
(0.00165159 1.77236e-012 0)
(0.00342575 1.72276e-012 0)
(0.00695465 1.68119e-012 0)
(0.0138069 1.62867e-012 0)
(0.026781 1.58929e-012 0)
(0.0507028 1.5871e-012 0)
(0.0935942 1.48793e-012 0)
(0.168258 1.44052e-012 0)
(0.294225 1.38657e-012 0)
(0.499821 1.32315e-012 0)
(0.823814 1.27433e-012 0)
(1.31585 1.21832e-012 0)
(2.03465 1.16965e-012 0)
(3.04323 1.14785e-012 0)
(4.40097 1.07284e-012 0)
(6.15349 1.06025e-012 0)
(8.32226 1.01576e-012 0)
(10.8971 9.50997e-013 0)
(13.8388 9.13224e-013 0)
(17.0927 8.86973e-013 0)
(20.6039 8.90053e-013 0)
(24.3245 8.67802e-013 0)
(28.2152 8.20084e-013 0)
(32.2451 7.94587e-013 0)
(36.39 7.97086e-013 0)
(40.6314 7.84307e-013 0)
(44.9548 7.54035e-013 0)
(49.3486 7.51578e-013 0)
(53.8039 7.50573e-013 0)
(58.3131 7.30267e-013 0)
(62.87 7.29294e-013 0)
(67.4696 7.07531e-013 0)
(72.1072 6.72562e-013 0)
(76.779 6.59381e-013 0)
(81.4815 6.47217e-013 0)
(86.2115 6.38887e-013 0)
(90.966 6.23743e-013 0)
(95.7425 5.93022e-013 0)
(100.538 5.62415e-013 0)
(105.351 5.43921e-013 0)
(110.179 5.21409e-013 0)
(115.019 4.88075e-013 0)
(119.87 4.51604e-013 0)
(124.729 4.05556e-013 0)
(129.595 3.60316e-013 0)
(134.466 3.2533e-013 0)
(139.341 2.85452e-013 0)
(144.217 2.32281e-013 0)
(149.092 1.77881e-013 0)
(153.967 1.18887e-013 0)
(158.836 6.14921e-014 0)
(163.705 1.04322e-014 0)
(168.558 -4.69663e-014 0)
(173.414 -9.53427e-014 0)
(178.249 -1.39564e-013 0)
(183.076 -1.79149e-013 0)
(187.894 -2.12052e-013 0)
(192.685 -2.54657e-013 0)
(197.464 -2.92559e-013 0)
(202.222 -3.36059e-013 0)
(206.949 -3.7672e-013 0)
(211.65 -4.15538e-013 0)
(216.323 -4.49947e-013 0)
(220.954 -4.82977e-013 0)
(225.543 -5.23648e-013 0)
(230.087 -5.56148e-013 0)
(234.578 -5.88561e-013 0)
(239.003 -6.25337e-013 0)
(243.357 -6.58605e-013 0)
(247.633 -6.90455e-013 0)
(251.816 -7.16246e-013 0)
(255.892 -7.36957e-013 0)
(259.846 -7.62102e-013 0)
(263.664 -7.92501e-013 0)
(267.328 -8.24388e-013 0)
(270.813 -8.49492e-013 0)
(274.1 -8.70495e-013 0)
(277.166 -8.91447e-013 0)
(279.991 -9.16857e-013 0)
(282.552 -9.37613e-013 0)
(284.83 -9.57785e-013 0)
(286.812 -9.68323e-013 0)
(288.491 -9.77612e-013 0)
(289.869 -9.88975e-013 0)
(290.962 -1.00174e-012 0)
(291.787 -1.0095e-012 0)
(292.361 -1.02246e-012 0)
(292.751 -1.03359e-012 0)
(292.992 -1.05155e-012 0)
(293.115 -1.0653e-012 0)
(293.171 -1.07858e-012 0)
(293.182 -1.09109e-012 0)
(293.171 -1.10077e-012 0)
(293.139 -1.10905e-012 0)
(293.089 -1.11614e-012 0)
(293.034 -1.12087e-012 0)
(293 -1.12311e-012 0)
(292.987 -1.12406e-012 0)
(292.973 -1.12468e-012 0)
(292.964 -1.12557e-012 0)
(292.964 -1.12388e-012 0)
(292.977 -1.12404e-012 0)
(293.001 -1.12512e-012 0)
(293.034 -1.12238e-012 0)
(293.065 -1.11631e-012 0)
(293.082 -1.10105e-012 0)
(293.091 -1.08712e-012 0)
(293.102 -1.07425e-012 0)
(293.107 -1.05591e-012 0)
(293.111 -1.04094e-012 0)
(293.119 -1.0358e-012 0)
(293.125 -1.03924e-012 0)
(293.129 -1.04551e-012 0)
(293.131 -1.04621e-012 0)
(293.134 -1.04667e-012 0)
(293.137 -1.05433e-012 0)
(293.142 -1.07169e-012 0)
(293.154 -1.09074e-012 0)
(293.18 -1.11584e-012 0)
(293.244 -1.14651e-012 0)
(293.397 -1.18455e-012 0)
(293.548 -1.22707e-012 0)
(293.415 -1.27277e-012 0)
(293.109 -1.32646e-012 0)
(292.953 -1.38567e-012 0)
(292.935 -1.45327e-012 0)
(292.98 -1.5258e-012 0)
(293.028 -1.59868e-012 0)
(293.066 -1.67104e-012 0)
(293.088 -1.74656e-012 0)
(293.1 -1.81881e-012 0)
(293.104 -1.88554e-012 0)
(293.103 -1.95181e-012 0)
(293.1 -2.00876e-012 0)
(293.093 -2.06079e-012 0)
(293.086 -2.1071e-012 0)
(293.079 -2.14819e-012 0)
(293.079 -2.18509e-012 0)
(293.087 -2.21774e-012 0)
(293.091 -2.25231e-012 0)
(293.09 -2.27773e-012 0)
(293.089 -2.29929e-012 0)
(293.088 -2.32214e-012 0)
(293.088 -2.3423e-012 0)
(293.089 -2.36415e-012 0)
(293.092 -2.38516e-012 0)
(293.096 -2.39457e-012 0)
(293.101 -2.39692e-012 0)
(293.107 -2.38844e-012 0)
(293.113 -2.37277e-012 0)
(293.117 -2.36561e-012 0)
(293.118 -2.35899e-012 0)
(293.115 -2.36096e-012 0)
(293.109 -2.37491e-012 0)
(293.096 -2.40009e-012 0)
(293.074 -2.42416e-012 0)
(293.039 -2.45469e-012 0)
(292.986 -2.48539e-012 0)
(292.898 -2.50296e-012 0)
(292.738 -2.51658e-012 0)
(292.449 -2.52539e-012 0)
(291.922 -2.52704e-012 0)
(290.944 -2.5177e-012 0)
(289.067 -2.51631e-012 0)
(285.334 -2.55915e-012 0)
(277.667 -2.69988e-012 0)
(260.063 -2.68614e-012 0)
(208.077 -2.55583e-012 0)
(106.908 -2.04835e-012 0)
(29.9245 -1.76719e-012 0)
(6.21471 -1.70927e-012 0)
(1.13129 -1.67434e-012 0)
(0.195614 -1.70159e-012 0)
(0.0334664 -1.59076e-012 0)
(0.00571464 -2.08124e-012 0)
(0.000975561 3.05676e-012 0)
(0.000166542 -3.36701e-011 0)
(2.85144e-005 3.10568e-010 0)
(4.2345e-006 -2.35574e-009 0)
(-4.20114e-013 1.50979e-012 0)
(2.33397e-013 1.48863e-012 0)
(-8.86908e-013 1.47488e-012 0)
(-4.73462e-013 1.4432e-012 0)
(-7.40201e-013 1.44477e-012 0)
(3.33424e-014 1.3958e-012 0)
(-4.4012e-013 1.40809e-012 0)
(-5.33478e-014 1.34891e-012 0)
(6.73516e-013 1.38183e-012 0)
(4.33451e-013 1.34641e-012 0)
(8.80239e-013 1.36443e-012 0)
(1.1203e-012 1.34443e-012 0)
(9.6693e-013 1.35651e-012 0)
(1.16032e-012 1.34557e-012 0)
(1.04028e-012 1.35797e-012 0)
(8.86908e-013 1.3388e-012 0)
(9.46924e-013 1.34755e-012 0)
(5.53484e-013 1.34234e-012 0)
(3.26756e-013 1.33401e-012 0)
(6.33506e-013 1.31984e-012 0)
(3.33424e-014 1.34036e-012 0)
(7.53538e-013 1.31505e-012 0)
(7.73544e-013 1.34766e-012 0)
(8.73571e-013 1.31817e-012 0)
(1.20699e-012 1.35849e-012 0)
(2.06723e-013 1.32328e-012 0)
(8.66902e-014 1.33964e-012 0)
(5.2681e-013 1.31359e-012 0)
(6.26837e-013 1.34141e-012 0)
(9.53593e-013 1.32911e-012 0)
(7.33533e-013 1.35276e-012 0)
(4.26783e-013 1.33286e-012 0)
(1.3537e-012 1.34547e-012 0)
(1.76715e-012 1.36933e-012 0)
(2.92079e-012 1.38809e-012 0)
(2.13391e-012 1.41809e-012 0)
(2.99415e-012 1.43466e-012 0)
(3.14085e-012 1.47946e-012 0)
(3.58764e-012 1.51312e-012 0)
(3.82104e-012 1.55834e-012 0)
(2.42733e-012 1.59116e-012 0)
(2.98748e-012 1.60742e-012 0)
(2.52069e-012 1.64472e-012 0)
(1.9472e-012 1.67035e-012 0)
(1.59377e-012 1.67546e-012 0)
(6.26837e-013 1.69713e-012 0)
(7.33533e-013 1.6839e-012 0)
(7.0019e-013 1.7063e-012 0)
(2.2006e-013 1.71672e-012 0)
(2.33397e-013 1.71807e-012 0)
(-5.20141e-013 1.72797e-012 0)
(-4.26783e-013 1.70473e-012 0)
(-5.06804e-013 1.68858e-012 0)
(-2.46734e-013 1.66816e-012 0)
(-1.86717e-013 1.69192e-012 0)
(4.73462e-013 1.64201e-012 0)
(8.26892e-013 1.6988e-012 0)
(8.3356e-013 1.64691e-012 0)
(9.06913e-013 1.69567e-012 0)
(6.46843e-013 1.669e-012 0)
(7.4687e-013 1.68452e-012 0)
(5.86826e-013 1.68327e-012 0)
(-3.46761e-013 1.68421e-012 0)
(-4.93468e-013 1.65951e-012 0)
(-5.33478e-014 1.66295e-012 0)
(-5.73489e-013 1.63003e-012 0)
(-3.66766e-013 1.64211e-012 0)
(-4.73462e-013 1.59543e-012 0)
(-4.13446e-013 1.602e-012 0)
(4.80131e-013 1.56386e-012 0)
(-2.80076e-013 1.58574e-012 0)
(-2.13391e-013 1.54511e-012 0)
(-1.06696e-013 1.56501e-012 0)
(-1.66712e-013 1.5275e-012 0)
(1.06696e-013 1.5524e-012 0)
(-9.33587e-014 1.5276e-012 0)
(7.4687e-013 1.55115e-012 0)
(1.46707e-013 1.52385e-012 0)
(1.6071e-012 1.53646e-012 0)
(1.36037e-012 1.54542e-012 0)
(2.25395e-012 1.57314e-012 0)
(1.52708e-012 1.59116e-012 0)
(2.0939e-012 1.6046e-012 0)
(2.56736e-012 1.63826e-012 0)
(2.02055e-012 1.65639e-012 0)
(2.15392e-012 1.68077e-012 0)
(1.20699e-012 1.71567e-012 0)
(1.48707e-012 1.71422e-012 0)
(1.07363e-012 1.761e-012 0)
(6.135e-013 1.7635e-012 0)
(7.33533e-013 1.76121e-012 0)
(2.53402e-013 1.77444e-012 0)
(-2.80076e-013 1.77611e-012 0)
(-6.93522e-013 1.76871e-012 0)
(-6.26837e-013 1.77246e-012 0)
(-2.26728e-013 1.75152e-012 0)
(5.60152e-013 1.76256e-012 0)
(1.09363e-012 1.78017e-012 0)
(2.62738e-012 1.78048e-012 0)
(3.85438e-012 1.81945e-012 0)
(8.41562e-012 1.79163e-012 0)
(2.17659e-011 1.84102e-012 0)
(5.77557e-011 1.82956e-012 0)
(1.62064e-010 1.85029e-012 0)
(4.48295e-010 1.8728e-012 0)
(1.23095e-009 1.8802e-012 0)
(3.33777e-009 1.92657e-012 0)
(8.93117e-009 1.88895e-012 0)
(2.35653e-008 1.94542e-012 0)
(6.12909e-008 1.91552e-012 0)
(1.57072e-007 1.93573e-012 0)
(3.96487e-007 1.93125e-012 0)
(9.85433e-007 1.93125e-012 0)
(2.4106e-006 1.92844e-012 0)
(5.80161e-006 1.92917e-012 0)
(1.37311e-005 1.91406e-012 0)
(3.19449e-005 1.91677e-012 0)
(7.30161e-005 1.8628e-012 0)
(0.000163882 1.8728e-012 0)
(0.000360989 1.84123e-012 0)
(0.000779912 1.81591e-012 0)
(0.00165159 1.77934e-012 0)
(0.00342575 1.73276e-012 0)
(0.00695465 1.68952e-012 0)
(0.0138069 1.63566e-012 0)
(0.026781 1.59742e-012 0)
(0.0507028 1.55105e-012 0)
(0.0935942 1.48303e-012 0)
(0.168258 1.435e-012 0)
(0.294225 1.38199e-012 0)
(0.499821 1.32054e-012 0)
(0.823814 1.2711e-012 0)
(1.31585 1.21551e-012 0)
(2.03465 1.16108e-012 0)
(3.04323 1.12677e-012 0)
(4.40097 1.082e-012 0)
(6.15349 1.0675e-012 0)
(8.32226 9.98069e-013 0)
(10.8971 9.73478e-013 0)
(13.8388 9.21712e-013 0)
(17.0927 8.91777e-013 0)
(20.6039 8.68769e-013 0)
(24.3245 8.20839e-013 0)
(28.2152 7.97585e-013 0)
(32.2451 7.73868e-013 0)
(36.39 7.78237e-013 0)
(40.6314 7.80823e-013 0)
(44.9548 7.49049e-013 0)
(49.3486 7.35385e-013 0)
(53.8039 7.3034e-013 0)
(58.3131 7.20487e-013 0)
(62.87 7.31245e-013 0)
(67.4696 7.09173e-013 0)
(72.1072 6.64298e-013 0)
(76.779 6.42979e-013 0)
(81.4815 6.25933e-013 0)
(86.2115 6.1814e-013 0)
(90.966 6.02708e-013 0)
(95.7425 5.76342e-013 0)
(100.538 5.48661e-013 0)
(105.351 5.3559e-013 0)
(110.179 5.15677e-013 0)
(115.019 4.85205e-013 0)
(119.87 4.5142e-013 0)
(124.729 4.05546e-013 0)
(129.595 3.627e-013 0)
(134.466 3.25648e-013 0)
(139.341 2.85566e-013 0)
(144.217 2.30304e-013 0)
(149.092 1.75047e-013 0)
(153.967 1.16211e-013 0)
(158.836 5.76468e-014 0)
(163.705 4.49054e-015 0)
(168.558 -5.0885e-014 0)
(173.414 -1.01156e-013 0)
(178.249 -1.42941e-013 0)
(183.076 -1.80383e-013 0)
(187.894 -2.12838e-013 0)
(192.685 -2.54339e-013 0)
(197.464 -2.91419e-013 0)
(202.222 -3.34963e-013 0)
(206.949 -3.76191e-013 0)
(211.65 -4.12535e-013 0)
(216.323 -4.45741e-013 0)
(220.954 -4.78893e-013 0)
(225.543 -5.19415e-013 0)
(230.087 -5.5347e-013 0)
(234.578 -5.85388e-013 0)
(239.003 -6.2208e-013 0)
(243.357 -6.54718e-013 0)
(247.633 -6.86981e-013 0)
(251.816 -7.14774e-013 0)
(255.892 -7.35319e-013 0)
(259.846 -7.61165e-013 0)
(263.664 -7.92572e-013 0)
(267.328 -8.22867e-013 0)
(270.813 -8.47315e-013 0)
(274.1 -8.69302e-013 0)
(277.166 -8.90117e-013 0)
(279.991 -9.14576e-013 0)
(282.552 -9.35221e-013 0)
(284.83 -9.54655e-013 0)
(286.812 -9.64922e-013 0)
(288.491 -9.73305e-013 0)
(289.869 -9.84985e-013 0)
(290.962 -9.98162e-013 0)
(291.787 -1.00722e-012 0)
(292.361 -1.02014e-012 0)
(292.751 -1.03128e-012 0)
(292.992 -1.05048e-012 0)
(293.115 -1.06528e-012 0)
(293.171 -1.0783e-012 0)
(293.182 -1.09036e-012 0)
(293.171 -1.1003e-012 0)
(293.139 -1.10853e-012 0)
(293.089 -1.11628e-012 0)
(293.034 -1.12088e-012 0)
(293 -1.12326e-012 0)
(292.987 -1.12413e-012 0)
(292.973 -1.12443e-012 0)
(292.964 -1.1259e-012 0)
(292.964 -1.12439e-012 0)
(292.977 -1.12473e-012 0)
(293.001 -1.12676e-012 0)
(293.034 -1.12423e-012 0)
(293.065 -1.11758e-012 0)
(293.082 -1.10215e-012 0)
(293.091 -1.08794e-012 0)
(293.102 -1.07481e-012 0)
(293.107 -1.05699e-012 0)
(293.111 -1.04279e-012 0)
(293.119 -1.03787e-012 0)
(293.125 -1.04019e-012 0)
(293.129 -1.04622e-012 0)
(293.131 -1.04809e-012 0)
(293.134 -1.04853e-012 0)
(293.137 -1.05665e-012 0)
(293.142 -1.07386e-012 0)
(293.154 -1.09358e-012 0)
(293.18 -1.11865e-012 0)
(293.244 -1.14843e-012 0)
(293.397 -1.1867e-012 0)
(293.548 -1.22974e-012 0)
(293.415 -1.2753e-012 0)
(293.109 -1.32822e-012 0)
(292.953 -1.38738e-012 0)
(292.935 -1.45368e-012 0)
(292.98 -1.52502e-012 0)
(293.028 -1.59751e-012 0)
(293.066 -1.67085e-012 0)
(293.088 -1.74757e-012 0)
(293.1 -1.82063e-012 0)
(293.104 -1.88917e-012 0)
(293.103 -1.95477e-012 0)
(293.1 -2.01225e-012 0)
(293.093 -2.06388e-012 0)
(293.086 -2.1089e-012 0)
(293.079 -2.15062e-012 0)
(293.079 -2.18635e-012 0)
(293.087 -2.22011e-012 0)
(293.091 -2.25442e-012 0)
(293.09 -2.27984e-012 0)
(293.089 -2.30191e-012 0)
(293.088 -2.32609e-012 0)
(293.088 -2.34688e-012 0)
(293.089 -2.37031e-012 0)
(293.092 -2.39032e-012 0)
(293.096 -2.40178e-012 0)
(293.101 -2.40564e-012 0)
(293.107 -2.39693e-012 0)
(293.113 -2.3846e-012 0)
(293.117 -2.37718e-012 0)
(293.118 -2.37075e-012 0)
(293.115 -2.37213e-012 0)
(293.109 -2.3857e-012 0)
(293.096 -2.40906e-012 0)
(293.074 -2.43359e-012 0)
(293.039 -2.46393e-012 0)
(292.986 -2.49244e-012 0)
(292.898 -2.51049e-012 0)
(292.738 -2.52412e-012 0)
(292.449 -2.53162e-012 0)
(291.922 -2.53187e-012 0)
(290.944 -2.52053e-012 0)
(289.067 -2.51908e-012 0)
(285.334 -2.56127e-012 0)
(277.667 -2.70343e-012 0)
(260.063 -2.68864e-012 0)
(208.077 -2.55653e-012 0)
(106.908 -2.0366e-012 0)
(29.9245 -1.76415e-012 0)
(6.21471 -1.7041e-012 0)
(1.13129 -1.67868e-012 0)
(0.195614 -1.69493e-012 0)
(0.0334664 -1.59711e-012 0)
(0.00571464 -2.09171e-012 0)
(0.00097556 3.04723e-012 0)
(0.000166554 -3.36847e-011 0)
(2.84216e-005 3.10572e-010 0)
(5.07555e-006 -2.35576e-009 0)
(1.6964e-006 -3.25194e-017 0)
(1.33699e-006 -2.79569e-025 0)
(1.05059e-006 -1.64869e-033 0)
(8.25568e-007 -7.03606e-042 0)
(6.4873e-007 -2.23967e-050 0)
(5.09768e-007 -5.4158e-059 0)
(4.00572e-007 -1.00643e-067 0)
(3.14766e-007 -1.44807e-076 0)
(2.47342e-007 -1.62112e-085 0)
(1.94361e-007 -1.41668e-094 0)
(1.52729e-007 -9.68511e-104 0)
(1.20017e-007 -5.18739e-113 0)
(9.43108e-008 -2.17887e-122 0)
(7.41125e-008 -7.18198e-132 0)
(5.82391e-008 -1.85858e-141 0)
(4.5767e-008 -3.77727e-151 0)
(3.59656e-008 -6.03013e-161 0)
(2.82636e-008 -7.56292e-171 0)
(2.22106e-008 -7.45266e-181 0)
(1.74548e-008 -5.77068e-191 0)
(1.37176e-008 -3.51119e-201 0)
(1.07805e-008 -1.67887e-211 0)
(8.47218e-009 -6.30835e-222 0)
(6.65875e-009 -1.86284e-232 0)
(5.2323e-009 -4.32315e-243 0)
(4.11266e-009 -7.88491e-254 0)
(3.23302e-009 -1.13025e-264 0)
(2.53963e-009 -1.27334e-275 0)
(1.99648e-009 -1.12749e-286 0)
(1.56996e-009 -7.84616e-298 0)
(1.23327e-009 -4.29165e-309 0)
(9.69798e-010 -1.84484e-320 0)
(7.61808e-010 0 0)
(5.9923e-010 0 0)
(4.71329e-010 0 0)
(3.69634e-010 0 0)
(2.90946e-010 0 0)
(2.28929e-010 0 0)
(1.80316e-010 0 0)
(1.41105e-010 0 0)
(1.11497e-010 0 0)
(8.67571e-011 0 0)
(6.92189e-011 0 0)
(5.3748e-011 0 0)
(4.19448e-011 0 0)
(3.31424e-011 0 0)
(2.6674e-011 0 0)
(2.00055e-011 0 0)
(1.59377e-011 0 0)
(1.27368e-011 0 0)
(1.00027e-011 0 0)
(7.46871e-012 0 0)
(6.2017e-012 0 0)
(4.20115e-012 0 0)
(3.80104e-012 0 0)
(2.53403e-012 0 0)
(2.2006e-012 0 0)
(1.80049e-012 0 0)
(1.46707e-012 0 0)
(1.13364e-012 0 0)
(8.00219e-013 0 0)
(8.66904e-013 0 0)
(7.33534e-013 0 0)
(8.00219e-013 0 0)
(4.00109e-013 0 0)
(3.33424e-013 0 0)
(3.33424e-013 0 0)
(2.6674e-013 0 0)
(6.00164e-013 0 0)
(2.07756e-025 0 0)
(6.00164e-013 0 0)
(1.3337e-013 0 0)
(4.66794e-013 0 0)
(4.00109e-013 0 0)
(6.66849e-014 0 0)
(3.33424e-013 0 0)
(3.33424e-013 0 0)
(2.00055e-013 0 0)
(3.33424e-013 0 0)
(2.6674e-013 -3.99957e-311 0)
(3.33424e-013 -2.7658e-296 0)
(3.33424e-013 -1.16189e-281 0)
(4.00109e-013 -5.83347e-267 0)
(2.6674e-013 -3.13578e-252 0)
(6.00164e-013 -7.49785e-238 0)
(1.3337e-013 -1.80428e-223 0)
(4.66794e-013 -2.96878e-209 0)
(2.00055e-013 -3.59489e-195 0)
(5.33479e-013 -6.743e-181 0)
(1.3337e-013 -1.69182e-166 0)
(6.00164e-013 -3.13108e-152 0)
(6.66849e-014 -3.90553e-138 0)
(7.33534e-013 -5.05976e-124 0)
(1.31178e-025 -6.6995e-110 0)
(5.33479e-013 -8.17385e-096 0)
(-6.66849e-014 -8.01058e-082 0)
(6.00164e-013 -6.57454e-068 0)
(6.66849e-014 -5.33214e-054 0)
(6.66849e-013 -3.26577e-040 0)
(1.3337e-013 -1.30211e-026 0)
(1.73103e-012 -4.99008e-013 0)
(2.04222e-012 -5.64651e-013 0)
(1.6435e-012 -5.14203e-013 0)
(1.53653e-012 -5.25751e-013 0)
(1.38093e-012 -5.85316e-013 0)
(1.31286e-012 -5.30614e-013 0)
(1.21561e-012 -5.91394e-013 0)
(1.46846e-012 -5.7863e-013 0)
(1.20589e-012 -5.64651e-013 0)
(1.51708e-012 -6.4245e-013 0)
(1.13781e-012 -5.99904e-013 0)
(1.00166e-012 -5.91394e-013 0)
(1.12809e-012 -6.62508e-013 0)
(1.12809e-012 -6.29686e-013 0)
(8.75239e-013 -6.29686e-013 0)
(6.80742e-013 -6.89251e-013 0)
(8.94689e-013 -6.96545e-013 0)
(4.57069e-013 -7.09308e-013 0)
(3.50096e-013 -7.10524e-013 0)
(4.95969e-013 -7.09308e-013 0)
(4.76519e-013 -7.05662e-013 0)
(8.94689e-013 -7.28758e-013 0)
(3.01471e-013 -7.00191e-013 0)
(7.29366e-013 -7.19033e-013 0)
(4.08445e-013 -7.00191e-013 0)
(7.39091e-013 -7.33013e-013 0)
(6.61292e-013 -6.96545e-013 0)
(1.16699e-012 -7.08701e-013 0)
(1.26423e-012 -6.81957e-013 0)
(1.39066e-012 -6.9776e-013 0)
(1.11836e-012 -6.84388e-013 0)
(1.38093e-012 -6.83781e-013 0)
(1.18644e-012 -7.02015e-013 0)
(1.57543e-012 -7.21465e-013 0)
(1.15726e-012 -7.00799e-013 0)
(1.26423e-012 -7.04446e-013 0)
(1.39066e-012 -6.8682e-013 0)
(1.18644e-012 -6.78918e-013 0)
(1.19616e-012 -6.81349e-013 0)
(1.36148e-012 -6.88035e-013 0)
(1.6435e-012 -6.76487e-013 0)
(1.46846e-012 -6.89251e-013 0)
(1.21561e-012 -7.02015e-013 0)
(1.09891e-012 -6.9229e-013 0)
(7.39091e-013 -6.8682e-013 0)
(6.51567e-013 -6.90467e-013 0)
(8.5579e-013 -6.84388e-013 0)
(9.53038e-013 -7.07485e-013 0)
(1.40038e-012 -7.02623e-013 0)
(8.65514e-013 -7.19641e-013 0)
(1.35176e-012 -7.06877e-013 0)
(9.82213e-013 -7.05662e-013 0)
(1.67268e-012 -7.13563e-013 0)
(8.5579e-013 -7.16602e-013 0)
(1.93525e-012 -7.50031e-013 0)
(1.06974e-012 -7.25719e-013 0)
(1.8769e-012 -7.4213e-013 0)
(9.04414e-013 -7.52463e-013 0)
(1.49763e-012 -7.34836e-013 0)
(8.46065e-013 -7.37268e-013 0)
(1.838e-012 -7.42738e-013 0)
(1.22533e-012 -7.15387e-013 0)
(1.71158e-012 -7.06877e-013 0)
(1.27396e-012 -7.22072e-013 0)
(1.23506e-012 -6.97152e-013 0)
(1.01139e-012 -6.95937e-013 0)
(9.23864e-013 -6.76487e-013 0)
(6.61292e-013 -6.75879e-013 0)
(6.02943e-013 -6.49136e-013 0)
(5.92592e-027 -6.62508e-013 0)
(1.94498e-013 -6.34548e-013 0)
(3.88995e-014 -6.38195e-013 0)
(2.13947e-013 -6.21177e-013 0)
(1.16699e-013 -6.24216e-013 0)
(2.43122e-013 -6.13275e-013 0)
(1.26423e-013 -5.95041e-013 0)
(1.36148e-013 -6.06589e-013 0)
(4.1817e-013 -5.93826e-013 0)
(-1.06974e-013 -5.7863e-013 0)
(2.72297e-013 -5.79238e-013 0)
(8.75239e-014 -5.74376e-013 0)
(4.95969e-013 -5.85316e-013 0)
(-4.08445e-013 -5.93218e-013 0)
(9.72488e-014 -5.84101e-013 0)
(-5.34868e-013 -5.85924e-013 0)
(2.82022e-013 -5.55534e-013 0)
(-6.02943e-013 -6.09628e-013 0)
(2.43122e-013 -5.62827e-013 0)
(-5.44593e-013 -5.92002e-013 0)
(2.23672e-013 -5.96865e-013 0)
(-3.50096e-013 -6.01727e-013 0)
(5.83493e-014 -5.78023e-013 0)
(-5.64043e-013 -5.89571e-013 0)
(-4.86244e-014 -5.68906e-013 0)
(-8.75239e-014 -5.70121e-013 0)
(8.75239e-014 -5.74984e-013 0)
(2.91746e-014 -6.01119e-013 0)
(-1.94498e-014 -5.99296e-013 0)
(1.84773e-013 -6.11452e-013 0)
(1.06974e-013 -6.07197e-013 0)
(3.9872e-013 -6.10844e-013 0)
(1.06974e-013 -6.1753e-013 0)
(6.32117e-013 -6.32117e-013 0)
(-1.45873e-013 -5.97472e-013 0)
(4.66794e-013 -6.66762e-013 0)
(1.55598e-013 -6.23e-013 0)
(3.88995e-013 -6.40019e-013 0)
(-7.7799e-014 -6.35764e-013 0)
(5.83493e-013 -6.55214e-013 0)
(-5.25144e-013 -6.57037e-013 0)
(8.75239e-014 -6.30294e-013 0)
(-3.11196e-013 -6.68586e-013 0)
(-2.91746e-014 -6.46097e-013 0)
(-5.05694e-013 -6.43058e-013 0)
(-4.86244e-014 -6.5339e-013 0)
(-1.94498e-014 -6.53998e-013 0)
(-2.23672e-013 -6.69801e-013 0)
(-2.62572e-013 -6.46705e-013 0)
(-4.86244e-014 -6.55214e-013 0)
(-1.75048e-013 -6.41234e-013 0)
(-1.65323e-013 -6.33941e-013 0)
(-1.06974e-013 -6.4245e-013 0)
(-1.84773e-013 -6.15707e-013 0)
(5.83493e-014 -6.27255e-013 0)
(-1.16699e-013 -6.32117e-013 0)
(3.11196e-013 -6.45489e-013 0)
(-1.36148e-013 -6.18746e-013 0)
(4.95969e-013 -6.2847e-013 0)
(-3.88995e-014 -6.00511e-013 0)
(4.3762e-013 -6.53998e-013 0)
(-5.83493e-014 -6.1206e-013 0)
(1.26423e-013 -6.22392e-013 0)
(-4.76519e-013 -6.33941e-013 0)
(-6.80742e-014 -6.22392e-013 0)
(-5.93218e-013 -6.29078e-013 0)
(4.86244e-014 -6.49136e-013 0)
(-2.23672e-013 -6.21785e-013 0)
(2.82022e-013 -6.13883e-013 0)
(-1.06974e-013 -6.23e-013 0)
(-6.80742e-014 -6.36372e-013 0)
(2.52847e-013 -6.30902e-013 0)
(-1.65323e-013 -6.23608e-013 0)
(-1.94498e-014 -6.18138e-013 0)
(9.72488e-015 -6.26647e-013 0)
(-3.40371e-013 -6.16314e-013 0)
(-9.72488e-015 -5.9808e-013 0)
(-2.91746e-013 -6.22392e-013 0)
(4.86244e-014 -5.84708e-013 0)
(-3.50096e-013 -5.89571e-013 0)
(4.86244e-014 -5.90179e-013 0)
(9.66931e-013 -5.14985e-013 0)
(8.89132e-014 -5.56142e-013 0)
(5.77936e-013 -5.47546e-013 0)
(4.66794e-013 -5.66214e-013 0)
(4.5568e-013 -5.70729e-013 0)
(2.6674e-013 -5.7481e-013 0)
(1.00027e-013 -5.90439e-013 0)
(-6.53177e-028 -5.91047e-013 0)
(-4.44566e-014 -5.99035e-013 0)
(-2.44511e-013 -6.24389e-013 0)
(2.00055e-013 -6.24476e-013 0)
(1.55598e-013 -6.29165e-013 0)
(2.6674e-013 -6.41582e-013 0)
(-1.66712e-013 -6.37848e-013 0)
(-4.86254e-027 -6.54346e-013 0)
(-6.66849e-014 -6.60163e-013 0)
(1.11141e-013 -6.7805e-013 0)
(-1.22256e-013 -6.73969e-013 0)
(4.44566e-014 -6.8161e-013 0)
(-7.7799e-014 -6.82218e-013 0)
(3.55653e-013 -6.82826e-013 0)
(1.77826e-013 -6.81957e-013 0)
(4.77908e-013 -6.94634e-013 0)
(5.44593e-013 -6.84041e-013 0)
(4.5568e-013 -6.92116e-013 0)
(8.11333e-013 -6.88383e-013 0)
(9.44703e-013 -6.88122e-013 0)
(1.26701e-012 -6.88643e-013 0)
(1.4893e-012 -6.8708e-013 0)
(1.76715e-012 -6.8352e-013 0)
(1.52264e-012 -6.81263e-013 0)
(1.5671e-012 -6.82826e-013 0)
(1.26701e-012 -6.71885e-013 0)
(1.52264e-012 -6.95763e-013 0)
(1.32258e-012 -6.74403e-013 0)
(1.45595e-012 -6.9229e-013 0)
(1.65601e-012 -6.72059e-013 0)
(1.28924e-012 -6.80134e-013 0)
(1.63378e-012 -6.66762e-013 0)
(1.07807e-012 -6.81176e-013 0)
(1.54487e-012 -6.65981e-013 0)
(1.64489e-012 -6.76574e-013 0)
(1.20033e-012 -6.68586e-013 0)
(1.13364e-012 -6.67804e-013 0)
(1.3337e-012 -6.74837e-013 0)
(9.44703e-013 -6.64505e-013 0)
(8.5579e-013 -6.54693e-013 0)
(4.44566e-013 -6.67196e-013 0)
(5.8905e-013 -6.63028e-013 0)
(5.22365e-013 -6.81263e-013 0)
(5.00137e-013 -6.75098e-013 0)
(4.33452e-013 -6.8352e-013 0)
(7.11306e-013 -7.04707e-013 0)
(5.22365e-013 -6.8161e-013 0)
(6.55735e-013 -7.09222e-013 0)
(5.8905e-013 -7.06356e-013 0)
(9.00246e-013 -7.16428e-013 0)
(1.11141e-012 -7.20596e-013 0)
(1.3337e-012 -7.17297e-013 0)
(1.88941e-012 -7.19902e-013 0)
(1.38927e-012 -7.06356e-013 0)
(2.41177e-012 -7.14779e-013 0)
(1.95609e-012 -7.06443e-013 0)
(2.73408e-012 -7.07659e-013 0)
(2.07835e-012 -6.85865e-013 0)
(2.56737e-012 -6.94027e-013 0)
(2.23394e-012 -6.71711e-013 0)
(1.85606e-012 -6.62508e-013 0)
(1.74492e-012 -6.54085e-013 0)
(1.58932e-012 -6.67023e-013 0)
(1.46707e-012 -6.25431e-013 0)
(1.26701e-012 -6.22219e-013 0)
(1.4115e-012 -6.17443e-013 0)
(1.1003e-012 -5.91221e-013 0)
(1.43373e-012 -6.08847e-013 0)
(9.1136e-013 -5.73681e-013 0)
(1.0225e-012 -5.80888e-013 0)
(1.03362e-012 -5.75765e-013 0)
(6.89077e-013 -5.70034e-013 0)
(4.77908e-013 -5.68385e-013 0)
(2.33397e-013 -5.63001e-013 0)
(2.11169e-013 -5.61091e-013 0)
(-8.89132e-014 -5.6934e-013 0)
(-1.77826e-013 -5.60917e-013 0)
(-4.77908e-013 -5.77502e-013 0)
(-1.11141e-014 -5.53884e-013 0)
(-2.88968e-013 -5.75939e-013 0)
(-4.11224e-013 -5.63175e-013 0)
(-2.55625e-013 -5.78717e-013 0)
(-4.66794e-013 -5.58746e-013 0)
(-4.22338e-013 -5.8002e-013 0)
(-2.00055e-013 -5.70729e-013 0)
(-1.77826e-013 -5.75591e-013 0)
(-8.89132e-014 -5.67777e-013 0)
(-1.3337e-013 -5.82364e-013 0)
(-4.33452e-013 -5.6083e-013 0)
(-1.3337e-013 -5.86792e-013 0)
(-5.00137e-013 -5.74723e-013 0)
(-3.33424e-013 -5.89397e-013 0)
(-2.11169e-013 -5.79672e-013 0)
(-2.6674e-013 -5.95041e-013 0)
(-5.00137e-013 -5.88095e-013 0)
(-5.55707e-014 -6.12233e-013 0)
(-1.3337e-013 -5.83146e-013 0)
(-3.44539e-013 -6.20916e-013 0)
(-1.88941e-013 -5.96517e-013 0)
(-3.44539e-013 -6.23347e-013 0)
(-4.5568e-013 -6.1588e-013 0)
(-5.22365e-013 -6.14057e-013 0)
(-2.44511e-013 -6.42797e-013 0)
(-4.44566e-013 -6.09802e-013 0)
(1.3337e-013 -6.46878e-013 0)
(-1.55598e-013 -6.13102e-013 0)
(1.44484e-013 -6.32986e-013 0)
(-4.77908e-013 -6.32204e-013 0)
(-1.22256e-013 -6.04766e-013 0)
(-4.44566e-013 -6.4601e-013 0)
(1.88941e-013 -6.20829e-013 0)
(7.7799e-014 -6.23868e-013 0)
(4.5568e-013 -6.25171e-013 0)
(3.00082e-013 -6.11712e-013 0)
(4.22338e-013 -6.18311e-013 0)
(4.00109e-013 -6.07892e-013 0)
(4.00109e-013 -6.01206e-013 0)
(7.7799e-014 -6.10497e-013 0)
(1.3337e-013 -5.95996e-013 0)
(1.22256e-013 -6.00164e-013 0)
(3.11196e-013 -6.14665e-013 0)
(4.44566e-014 -5.87661e-013 0)
(1.55598e-013 -6.14665e-013 0)
(-8.89132e-014 -5.95388e-013 0)
(-1.88941e-013 -6.10844e-013 0)
(-1.11141e-013 -5.99817e-013 0)
(-4.77908e-013 -5.97472e-013 0)
(-2.44511e-013 -6.2109e-013 0)
(-6.00164e-013 -6.0329e-013 0)
(-6.66849e-014 -6.1397e-013 0)
(-3.55653e-013 -6.05982e-013 0)
(4.44566e-014 -6.41582e-013 0)
(-2.22283e-014 -5.98601e-013 0)
(8.89132e-014 -6.32899e-013 0)
(8.89132e-014 -6.16227e-013 0)
(2.22283e-013 -6.11799e-013 0)
(5.00137e-013 -6.37848e-013 0)
(5.66822e-013 -6.04332e-013 0)
(4.44566e-013 -5.75591e-013 0)
(2.22283e-013 -6.21785e-013 0)
(2.22283e-013 -5.79846e-013 0)
(-2.00055e-013 -5.92436e-013 0)
(-1.11141e-013 -5.92263e-013 0)
)
;

boundaryField
{
    inlet
    {
        type            zeroGradient;
    }
    outlet
    {
        type            zeroGradient;
    }
    bottom
    {
        type            symmetryPlane;
    }
    top
    {
        type            symmetryPlane;
    }
    obstacle
    {
        type            zeroGradient;
    }
    defaultFaces
    {
        type            empty;
    }
}


// ************************************************************************* //
