/*--------------------------------*- C++ -*----------------------------------*\
| =========                 |                                                 |
| \\      /  F ield         | OpenFOAM: The Open Source CFD Toolbox           |
|  \\    /   O peration     | Version:  5.x                                   |
|   \\  /    A nd           | Web:      www.OpenFOAM.org                      |
|    \\/     M anipulation  |                                                 |
\*---------------------------------------------------------------------------*/
/*   Windows 32 and 64 bit porting by blueCAPE: http://www.bluecape.com.pt   *\
|  Based on Windows porting (2.0.x v4) by Symscape: http://www.symscape.com   |
\*---------------------------------------------------------------------------*/
FoamFile
{
    version     2.0;
    format      ascii;
    class       volScalarField;
    location    "0.009";
    object      mag(U);
}
// * * * * * * * * * * * * * * * * * * * * * * * * * * * * * * * * * * * * * //

dimensions      [0 1 -1 0 0 0 0];

internalField   nonuniform List<scalar> 
100
(
26.6983
93.1746
171.628
223.801
253.691
266.795
25.8432
89.8989
170.794
230.011
266.196
282.54
25.7176
89.1182
168.111
224.234
259.446
275.43
25.481
88.1551
167.855
225.803
261.469
278.404
25.371
87.6024
166.865
224.514
260.972
278.463
25.0006
86.2519
166.179
225.674
263.142
294.31
25.8077
89.2894
169.455
227.899
263.822
292.185
24.7183
85.4857
165.288
225.45
263.226
291.952
26.1722
91.1961
171.811
230.705
265.716
287.904
25.0785
86.6375
165.638
225.008
260.505
284.643
305.669
314.382
302.333
311.461
302.39
312.408
295.397
302.547
294.122
304.055
179.071
189.889
159.519
264.425
258.695
193.599
320.252
317.114
233.152
341.801
342.21
254.2
346.633
350.753
261.856
321.427
339.303
261.785
319.769
338.854
258.272
322.344
343.761
259.518
309.441
324.687
247.83
314.248
338.79
271.875
)
;

boundaryField
{
    inlet
    {
        type            calculated;
        value           nonuniform List<scalar> 10(25.0006 25.8077 24.7183 26.1722 25.0785 26.6983 25.8432 25.7176 25.481 25.371);
    }
    outlet
    {
        type            calculated;
        value           nonuniform List<scalar> 10(261.785 258.272 259.518 247.83 271.875 159.519 193.599 233.152 254.2 261.856);
    }
    bottom
    {
        type            symmetryPlane;
    }
    top
    {
        type            symmetryPlane;
    }
    obstacle
    {
        type            calculated;
        value           nonuniform List<scalar> 
12
(
266.795
282.54
275.43
278.404
278.463
179.071
264.425
320.252
341.801
346.633
305.669
314.382
)
;
    }
    defaultFaces
    {
        type            empty;
    }
}


// ************************************************************************* //
