/*--------------------------------*- C++ -*----------------------------------*\
| =========                 |                                                 |
| \\      /  F ield         | OpenFOAM: The Open Source CFD Toolbox           |
|  \\    /   O peration     | Version:  5.x                                   |
|   \\  /    A nd           | Web:      www.OpenFOAM.org                      |
|    \\/     M anipulation  |                                                 |
\*---------------------------------------------------------------------------*/
/*   Windows 32 and 64 bit porting by blueCAPE: http://www.bluecape.com.pt   *\
|  Based on Windows porting (2.0.x v4) by Symscape: http://www.symscape.com   |
\*---------------------------------------------------------------------------*/
FoamFile
{
    version     2.0;
    format      ascii;
    class       volScalarField;
    location    "0.009";
    object      p;
}
// * * * * * * * * * * * * * * * * * * * * * * * * * * * * * * * * * * * * * //

dimensions      [1 -1 -2 0 0 0 0];

internalField   nonuniform List<scalar> 
100
(
86465.9
69356.3
48273.7
37388.4
32210.8
30662.3
86652
70047.3
49372.9
38383.6
32928.2
30962.9
86686.1
70199.7
49523.6
38514.1
32897.1
30893.9
86752.5
70442
49935.3
38920.1
33140.4
31052.2
86773.6
70539
50062.9
39039.6
33204.6
31076.5
86858.4
70843.4
50509.2
39515.4
33356.4
31240.4
86690.4
70224.6
49649.9
38674.1
32914.1
31058.9
86983.4
71211.6
50801.6
39815.3
33325.4
31478.3
86453.7
69844.4
49195.8
38184.6
32296.7
30722.7
87186.9
71432
51931
41263.8
35173.1
33573.3
28877.6
27961
29083.4
28281.5
29721.6
28948.5
29492.6
28964.1
31955.3
31107.9
27859.7
27756.5
26277.9
27813.9
27837.8
26356.9
27756.1
27761.2
26342.3
27712
27767.6
26363.8
27677.4
27749.8
26365.1
27625
27748.2
26369.7
27698.2
27690.4
26244.6
28298.4
28181.3
26542.1
28505.7
28306.4
25817.1
30258.2
29604.7
24954.3
)
;

boundaryField
{
    inlet
    {
        type            zeroGradient;
    }
    outlet
    {
        type            zeroGradient;
    }
    bottom
    {
        type            symmetryPlane;
    }
    top
    {
        type            symmetryPlane;
    }
    obstacle
    {
        type            zeroGradient;
    }
    defaultFaces
    {
        type            empty;
    }
}


// ************************************************************************* //
