/*--------------------------------*- C++ -*----------------------------------*\
| =========                 |                                                 |
| \\      /  F ield         | OpenFOAM: The Open Source CFD Toolbox           |
|  \\    /   O peration     | Version:  5.x                                   |
|   \\  /    A nd           | Web:      www.OpenFOAM.org                      |
|    \\/     M anipulation  |                                                 |
\*---------------------------------------------------------------------------*/
/*   Windows 32 and 64 bit porting by blueCAPE: http://www.bluecape.com.pt   *\
|  Based on Windows porting (2.0.x v4) by Symscape: http://www.symscape.com   |
\*---------------------------------------------------------------------------*/
FoamFile
{
    version     2.0;
    format      ascii;
    class       surfaceScalarField;
    location    "0.009";
    object      phi;
}
// * * * * * * * * * * * * * * * * * * * * * * * * * * * * * * * * * * * * * //

dimensions      [1 0 -1 0 0 0 0];

internalField   nonuniform List<scalar> 
174
(
16.014
-0.810497
22.8598
0.166537
24.9942
1.36061
23.0624
0.699729
20.0793
0.985109
0.128079
9.85466
-0.620384
14.0535
0.621164
15.6172
2.18616
14.4879
1.06341
12.3321
1.75346
0.497699
6.73354
-0.657868
9.81316
0.665063
11.0016
2.72885
10.3036
1.37644
8.89533
2.38562
0.634433
4.37623
-0.578577
6.36262
0.757431
7.15984
3.00954
6.74185
1.55295
5.81718
2.7922
0.808992
2.93609
-0.537739
4.31133
0.775228
4.88021
3.19146
4.59793
1.70091
3.97343
3.09138
0.89129
12.1672
-0.123099
17.8891
0.960652
20.4029
3.85941
19.1833
2.30745
17.6994
3.3303
1.31643
15.9318
22.4491
0.0685985
32.2125
2.0267
36.0186
5.82086
33.5488
4.28255
30.9367
3.95963
2.31561
27.7478
38.0557
1.93485
56.5002
1.82068
64.7517
6.36496
61.0469
5.32667
55.8683
4.60836
3.05277
50.1524
72.3498
0.466741
103.03
3.02382
114.406
4.63899
105.625
3.03078
95.2107
1.51065
0.324405
85.1827
122.093
179.494
207.685
196.019
178.238
159.28
15.2892
0.053249
-0.0990124
14.8609
26.9322
0.428421
0.240321
26.3369
48.9129
0.551308
0.396913
48.022
83.1329
0.0273076
-0.0600681
81.6273
155.995
153.757
9.6364
-0.447419
10.1856
-0.134967
-2.55366
8.12827
-0.41236
8.44403
0.0195173
-3.14891
6.55296
-0.319063
6.865
-0.0188807
-3.00218
4.64683
-0.23673
4.9212
-0.107862
-2.87707
3.22905
-0.194896
3.42814
-0.195574
-2.78475
14.4932
-0.212033
14.8497
-0.983909
-2.70992
25.6326
0.0801297
25.9044
-1.47628
-2.86054
46.9407
0.257394
46.3433
-1.6166
-3.09922
79.7146
-0.337138
78.2959
-4.59452
-5.99336
150.455
142.588
)
;

boundaryField
{
    inlet
    {
        type            calculated;
        value           nonuniform List<scalar> 10(-3.60938 -6.61942 -11.2982 -21.1721 -36.2618 -4.5217 -2.9337 -1.95407 -1.2955 -0.862767);
    }
    outlet
    {
        type            calculated;
        value           nonuniform List<scalar> 10(9.67334 17.0328 30.8487 51.4174 97.2761 7.20882 5.7474 4.50412 3.27438 2.26452);
    }
    bottom
    {
        type            symmetryPlane;
        value           uniform 0;
    }
    top
    {
        type            symmetryPlane;
        value           uniform 0;
    }
    obstacle
    {
        type            calculated;
        value           nonuniform List<scalar> 
12
(
18.3587
11.0792
8.12888
5.23277
3.62017
-8.97731
-8.01402
-6.55292
-4.66664
-3.24437
0.351717
0.402131
)
;
    }
    defaultFaces
    {
        type            empty;
        value           nonuniform 0();
    }
}


// ************************************************************************* //
