/*--------------------------------*- C++ -*----------------------------------*\
| =========                 |                                                 |
| \\      /  F ield         | OpenFOAM: The Open Source CFD Toolbox           |
|  \\    /   O peration     | Version:  5.x                                   |
|   \\  /    A nd           | Web:      www.OpenFOAM.org                      |
|    \\/     M anipulation  |                                                 |
\*---------------------------------------------------------------------------*/
/*   Windows 32 and 64 bit porting by blueCAPE: http://www.bluecape.com.pt   *\
|  Based on Windows porting (2.0.x v4) by Symscape: http://www.symscape.com   |
\*---------------------------------------------------------------------------*/
FoamFile
{
    version     2.0;
    format      ascii;
    class       volScalarField;
    location    "0.009";
    object      T;
}
// * * * * * * * * * * * * * * * * * * * * * * * * * * * * * * * * * * * * * //

dimensions      [0 0 0 1 0 0 0];

internalField   nonuniform List<scalar> 
100
(
332.673
319.91
272.399
272.147
280.958
323.152
333.052
320.028
271.221
272.063
284.425
330.785
333.074
320.567
272.593
272.306
281.456
323.758
333.199
320.613
272.338
272.461
281.84
324.966
333.23
320.845
272.765
272.639
281.379
324.226
333.373
320.927
273.276
273.478
281.62
301.437
333.093
320.388
272.98
273.257
282.129
302.233
333.545
321.359
273.575
273.664
281.914
302.395
332.782
319.999
272.286
272.491
281.892
304.397
333.725
321.669
275.577
276.705
287.009
310.601
324.11
328.772
326.19
331.493
327.267
333.053
330.742
336.663
337.919
342.784
371.787
370.889
384.905
394.441
389.189
393.424
399.208
397.346
404.807
397.262
394.367
406.306
390.735
388.662
404.83
342.231
364.895
402.043
344.169
365.77
398.824
344.269
367.737
397.734
347.983
369.712
394.031
352.523
373.158
391.435
)
;

boundaryField
{
    inlet
    {
        type            zeroGradient;
    }
    outlet
    {
        type            zeroGradient;
    }
    bottom
    {
        type            symmetryPlane;
    }
    top
    {
        type            symmetryPlane;
    }
    obstacle
    {
        type            zeroGradient;
    }
    defaultFaces
    {
        type            empty;
    }
}


// ************************************************************************* //
