/*--------------------------------*- C++ -*----------------------------------*\
| =========                 |                                                 |
| \\      /  F ield         | OpenFOAM: The Open Source CFD Toolbox           |
|  \\    /   O peration     | Version:  5.x                                   |
|   \\  /    A nd           | Web:      www.OpenFOAM.org                      |
|    \\/     M anipulation  |                                                 |
\*---------------------------------------------------------------------------*/
/*   Windows 32 and 64 bit porting by blueCAPE: http://www.bluecape.com.pt   *\
|  Based on Windows porting (2.0.x v4) by Symscape: http://www.symscape.com   |
\*---------------------------------------------------------------------------*/
FoamFile
{
    version     2.0;
    format      ascii;
    class       volVectorField;
    location    "0.009";
    object      U;
}
// * * * * * * * * * * * * * * * * * * * * * * * * * * * * * * * * * * * * * //

dimensions      [0 1 -1 0 0 0 0];

internalField   nonuniform List<vector> 
100
(
(26.6333 1.86162 0)
(92.6164 10.1841 0)
(170.362 20.8076 0)
(222.267 26.1646 0)
(252.206 27.4131 0)
(265.545 25.7997 0)
(25.8181 -1.13826 0)
(89.7632 -4.93742 0)
(170.537 -9.36967 -4.54258e-018)
(229.649 -12.8958 8.00972e-018)
(265.916 -12.2094 0)
(282.131 -15.1992 3.21215e-017)
(25.7087 0.677165 0)
(89.0165 4.2576 0)
(167.827 9.75592 0)
(223.932 11.6336 0)
(259.022 14.827 0)
(275.169 11.9856 1.17615e-017)
(25.4782 -0.376662 0)
(88.1486 -1.06576 -1.05927e-018)
(167.851 -1.08476 1.72883e-018)
(225.79 -2.46328 0)
(261.463 1.69105 0)
(278.391 -2.62282 8.85115e-018)
(25.3701 0.210167 -3.23018e-019)
(87.5796 1.9986 5.24224e-019)
(166.764 5.80882 0)
(224.425 6.34399 -2.75155e-018)
(260.746 10.8469 4.46604e-018)
(278.394 6.19846 6.57567e-018)
(24.9936 -0.589892 0)
(86.2075 -2.76868 0)
(166.099 -5.13662 0)
(225.563 -7.06303 0)
(263.128 -2.66948 0)
(294.281 -4.10307 0)
(25.803 0.493091 0)
(89.2022 3.94441 0)
(169.08 11.2685 0)
(227.449 14.3199 0)
(263.318 16.3062 0)
(291.841 14.166 0)
(24.7153 -0.379619 0)
(85.4312 -3.05046 0)
(165.23 -4.3913 0)
(225.389 -5.25498 0)
(263.217 -2.19287 0)
(291.949 -1.23794 0)
(26.1442 1.21054 0)
(91.0158 5.73177 0)
(171.235 14.0647 0)
(229.92 19.0072 0)
(264.89 20.9395 0)
(287.186 20.3126 0)
(25.0327 -1.51444 0)
(86.4817 -5.19261 0)
(165.121 -13.0782 0)
(224.144 -19.6992 0)
(259.284 -25.2017 0)
(283.01 -30.4438 0)
(305.632 -4.77863 0)
(314.328 -5.82464 0)
(302.131 11.045 0)
(311.362 7.83951 0)
(302.38 -2.42608 0)
(312.384 -3.85028 0)
(294.766 19.3066 0)
(302.016 17.9167 0)
(292.39 -31.8709 0)
(302.243 -33.1431 0)
(179.066 1.42065 1.48188e-016)
(189.656 9.40187 -4.54889e-017)
(159.169 10.5686 0)
(264.295 -8.27187 1.13422e-016)
(258.615 -6.43066 1.67991e-017)
(193.312 -10.5357 -5.86353e-018)
(320.241 -2.66708 0)
(317.085 4.31876 0)
(233.151 0.688379 0)
(341.769 -4.70458 6.14688e-017)
(342.202 -2.40526 -9.16284e-018)
(254.153 -4.88851 0)
(346.629 -1.61687 2.23574e-017)
(350.75 1.23901 0)
(261.853 -1.42322 0)
(321.371 -6.00431 0)
(339.237 -6.66183 0)
(261.677 -7.5322 0)
(319.721 5.50104 0)
(338.853 0.462273 0)
(258.27 0.906011 0)
(322.29 -5.92664 0)
(343.59 -10.8484 0)
(259.415 -7.31123 0)
(309.071 15.1428 0)
(324.687 0.480177 0)
(247.824 -1.65852 0)
(312.341 -34.5704 0)
(336.968 -35.0882 0)
(271.358 -16.7596 0)
)
;

boundaryField
{
    inlet
    {
        type            zeroGradient;
    }
    outlet
    {
        type            zeroGradient;
    }
    bottom
    {
        type            symmetryPlane;
    }
    top
    {
        type            symmetryPlane;
    }
    obstacle
    {
        type            zeroGradient;
    }
    defaultFaces
    {
        type            empty;
    }
}


// ************************************************************************* //
