/*--------------------------------*- C++ -*----------------------------------*\
| =========                 |                                                 |
| \\      /  F ield         | OpenFOAM: The Open Source CFD Toolbox           |
|  \\    /   O peration     | Version:  5.x                                   |
|   \\  /    A nd           | Web:      www.OpenFOAM.org                      |
|    \\/     M anipulation  |                                                 |
\*---------------------------------------------------------------------------*/
/*   Windows 32 and 64 bit porting by blueCAPE: http://www.bluecape.com.pt   *\
|  Based on Windows porting (2.0.x v4) by Symscape: http://www.symscape.com   |
\*---------------------------------------------------------------------------*/
FoamFile
{
    version     2.0;
    format      ascii;
    class       volScalarField;
    location    "0.0055";
    object      mag(U);
}
// * * * * * * * * * * * * * * * * * * * * * * * * * * * * * * * * * * * * * //

dimensions      [0 1 -1 0 0 0 0];

internalField   nonuniform List<scalar> 
100
(
0.00344458
0.0197331
0.0885305
0.364775
1.34642
4.38308
12.1643
28.0297
53.7137
88.1976
128.495
170.21
210.875
246.788
277.169
300.582
316.765
314.944
289.98
246.345
0.00245387
0.0138001
0.060969
0.249221
0.91657
3.01235
8.571
20.5898
41.025
69.614
104.455
141.12
177.697
211.314
241.961
269.885
291.893
305.783
311.662
304.323
306.344
311.73
316.809
319.033
319.357
318.615
317.32
316.017
314.85
313.709
312.582
311.459
310.14
308.759
307.226
305.358
303.243
300.984
298.674
296.643
86.0086
65.8575
45.7092
29.2406
16.2337
7.62482
3.04361
1.07923
0.360511
0.121265
0.0424826
0.0155009
0.00580616
0.00219544
0.000826898
0.000307485
0.00011229
4.01316e-005
1.40545e-005
3.8432e-006
291.278
288.253
277.805
249.172
197.163
126.982
61.9283
23.337
7.53273
2.29135
0.704419
0.226771
0.0766846
0.0268609
0.00957153
0.00341736
0.00120968
0.000421463
0.00014419
3.66855e-005
)
;

boundaryField
{
    inlet
    {
        type            calculated;
        value           nonuniform List<scalar> 2(0.00245387 0.00344458);
    }
    outlet
    {
        type            calculated;
        value           nonuniform List<scalar> 2(3.66855e-005 3.8432e-006);
    }
    bottom
    {
        type            symmetryPlane;
    }
    top
    {
        type            symmetryPlane;
    }
    obstacle
    {
        type            calculated;
        value           nonuniform List<scalar> 
22
(
246.345
86.0086
306.344
311.73
316.809
319.033
319.357
318.615
317.32
316.017
314.85
313.709
312.582
311.459
310.14
308.759
307.226
305.358
303.243
300.984
298.674
296.643
)
;
    }
    defaultFaces
    {
        type            empty;
    }
}


// ************************************************************************* //
