/*--------------------------------*- C++ -*----------------------------------*\
| =========                 |                                                 |
| \\      /  F ield         | OpenFOAM: The Open Source CFD Toolbox           |
|  \\    /   O peration     | Version:  5.x                                   |
|   \\  /    A nd           | Web:      www.OpenFOAM.org                      |
|    \\/     M anipulation  |                                                 |
\*---------------------------------------------------------------------------*/
/*   Windows 32 and 64 bit porting by blueCAPE: http://www.bluecape.com.pt   *\
|  Based on Windows porting (2.0.x v4) by Symscape: http://www.symscape.com   |
\*---------------------------------------------------------------------------*/
FoamFile
{
    version     2.0;
    format      ascii;
    class       volScalarField;
    location    "0.0055";
    object      p;
}
// * * * * * * * * * * * * * * * * * * * * * * * * * * * * * * * * * * * * * //

dimensions      [1 -1 -2 0 0 0 0];

internalField   nonuniform List<scalar> 
100
(
99998.8
99993.4
99970
99875.2
99531.5
98449.6
95601.8
89780.2
80871.5
69992
58741.9
48195.6
39041.7
31632.1
25717.3
21042.9
18329.1
15943.9
15961.4
16803.6
99999.2
99995.4
99979.3
99914.8
99681.7
98943.7
96946.4
92593.1
85461.7
76431.3
66871.9
57775.7
50159.9
44377
39271.1
35439.5
32031.2
30889.1
31236.6
32667.6
32229.9
31800.5
31195.2
30830.5
30694.8
30676.3
30693.9
30725.6
30743.9
30745.1
30747.2
30729.1
30720.6
30728.2
30726
30735.9
30757.3
30780.1
30775.7
30741.2
12949.7
12118.2
11306.2
10820.5
10478.3
10234.2
10095.8
10034.2
10011.7
10004.1
10001.5
10000.5
10000.2
10000.1
10000
10000
10000
10000
10000
10000
30443.1
29345
27531.4
24596.2
20331.8
15852.5
12583.3
10914.3
10282.2
10084.1
10025.9
10008.4
10002.9
10001
10000.4
10000.1
10000
10000
10000
10000
)
;

boundaryField
{
    inlet
    {
        type            zeroGradient;
    }
    outlet
    {
        type            zeroGradient;
    }
    bottom
    {
        type            symmetryPlane;
    }
    top
    {
        type            symmetryPlane;
    }
    obstacle
    {
        type            zeroGradient;
    }
    defaultFaces
    {
        type            empty;
    }
}


// ************************************************************************* //
