/*--------------------------------*- C++ -*----------------------------------*\
| =========                 |                                                 |
| \\      /  F ield         | OpenFOAM: The Open Source CFD Toolbox           |
|  \\    /   O peration     | Version:  5.x                                   |
|   \\  /    A nd           | Web:      www.OpenFOAM.org                      |
|    \\/     M anipulation  |                                                 |
\*---------------------------------------------------------------------------*/
/*   Windows 32 and 64 bit porting by blueCAPE: http://www.bluecape.com.pt   *\
|  Based on Windows porting (2.0.x v4) by Symscape: http://www.symscape.com   |
\*---------------------------------------------------------------------------*/
FoamFile
{
    version     2.0;
    format      ascii;
    class       surfaceScalarField;
    location    "0.0055";
    object      phi;
}
// * * * * * * * * * * * * * * * * * * * * * * * * * * * * * * * * * * * * * //

dimensions      [1 0 -1 0 0 0 0];

internalField   nonuniform List<scalar> 
137
(
0.0136148
7.11742e-005
0.0619356
0.000439052
0.256197
0.0023354
0.958011
0.0113681
3.18701
0.0495147
9.21173
0.188577
22.3709
0.600421
43.4675
1.54552
67.7225
3.23102
88.6196
5.57893
102.367
8.22848
106.131
10.8765
101.988
12.3653
96.8465
13.8543
85.8881
14.7674
72.1104
13.9632
57.0933
12.469
42.3056
8.70808
31.8324
6.55184
4.13049
0.0166935
0.0789569
0.341312
1.34155
4.73626
14.7193
39.194
86.0366
151.092
222.401
288.954
338.673
373.196
416.69
432.567
425.754
386.766
341.24
322.368
304.848
299.625
294.779
290.205
285.875
281.746
277.778
273.96
270.252
266.691
263.233
260.145
257.27
254.613
252.345
250.279
248.285
246.293
244.237
242.042
239.716
5.35008
-6.85316
3.93521
-3.98775
2.57934
-2.18791
1.67274
-1.47303
0.951758
-0.935043
0.447575
-0.476768
0.176233
-0.184597
0.0635023
-0.0575477
0.0226861
-0.0166921
0.00832528
-0.0049691
0.00316058
-0.00156811
0.00122921
-0.000523554
0.000482404
-0.000181756
0.00018852
-6.43018e-005
7.26916e-005
-2.28085e-005
2.75037e-005
-8.02237e-006
1.0179e-005
-2.77901e-006
3.67351e-006
-9.44546e-007
1.26601e-006
-3.16144e-007
-9.9924e-008
228.921
211.188
182.45
138.457
85.507
41.0291
15.3253
4.75431
1.3723
0.402792
0.12486
0.0410441
0.0141077
0.00497033
0.00176355
0.000622331
0.00021667
7.3967e-005
2.41962e-005
)
;

boundaryField
{
    inlet
    {
        type            calculated;
        value           nonuniform List<scalar> 2(-0.00483135 -0.0040693);
    }
    outlet
    {
        type            calculated;
        value           nonuniform List<scalar> 2(7.09387e-006 3.88916e-007);
    }
    bottom
    {
        type            symmetryPlane;
        value           uniform 0;
    }
    top
    {
        type            symmetryPlane;
        value           uniform 0;
    }
    obstacle
    {
        type            calculated;
        value           nonuniform List<scalar> 
22
(
25.5123
-3.77821
3.32876
3.28542
3.24028
3.2097
3.16754
3.12865
3.08594
3.04333
3.00118
2.95847
2.91958
2.88168
2.84842
2.81683
2.78806
2.76528
2.73907
2.71714
2.68917
2.66496
)
;
    }
    defaultFaces
    {
        type            empty;
        value           nonuniform 0();
    }
}


// ************************************************************************* //
