/*--------------------------------*- C++ -*----------------------------------*\
| =========                 |                                                 |
| \\      /  F ield         | OpenFOAM: The Open Source CFD Toolbox           |
|  \\    /   O peration     | Version:  5.x                                   |
|   \\  /    A nd           | Web:      www.OpenFOAM.org                      |
|    \\/     M anipulation  |                                                 |
\*---------------------------------------------------------------------------*/
/*   Windows 32 and 64 bit porting by blueCAPE: http://www.bluecape.com.pt   *\
|  Based on Windows porting (2.0.x v4) by Symscape: http://www.symscape.com   |
\*---------------------------------------------------------------------------*/
FoamFile
{
    version     2.0;
    format      ascii;
    class       volScalarField;
    location    "0.0055";
    object      T;
}
// * * * * * * * * * * * * * * * * * * * * * * * * * * * * * * * * * * * * * //

dimensions      [0 0 0 1 0 0 0];

internalField   nonuniform List<scalar> 
100
(
348.431
348.425
348.402
348.308
347.964
346.876
343.988
337.97
328.238
315.142
301.15
281.656
273.784
257.131
237.381
230.531
233.134
248.482
294.014
321.308
348.431
348.427
348.411
348.347
348.114
347.374
345.357
340.9
333.289
322.867
311.426
295.7
290.699
273.387
257.617
256.915
266.877
305.946
347.064
372.852
400.899
402.401
403.613
404.394
407.124
409.096
410.996
412.806
414.319
415.684
416.434
416.725
416.314
415.667
414.25
411.81
409.756
406.849
404.471
401.52
312.294
299.264
289.808
285.497
282.609
280.59
279.488
279.011
278.837
278.778
278.758
278.75
278.748
278.747
278.746
278.746
278.746
278.746
278.746
278.746
394.652
389.169
382.487
368.245
345.863
319.953
298.001
285.67
280.9
279.396
278.948
278.812
278.769
278.754
278.749
278.747
278.746
278.746
278.746
278.746
)
;

boundaryField
{
    inlet
    {
        type            zeroGradient;
    }
    outlet
    {
        type            zeroGradient;
    }
    bottom
    {
        type            symmetryPlane;
    }
    top
    {
        type            symmetryPlane;
    }
    obstacle
    {
        type            zeroGradient;
    }
    defaultFaces
    {
        type            empty;
    }
}


// ************************************************************************* //
