/*--------------------------------*- C++ -*----------------------------------*\
| =========                 |                                                 |
| \\      /  F ield         | OpenFOAM: The Open Source CFD Toolbox           |
|  \\    /   O peration     | Version:  5.x                                   |
|   \\  /    A nd           | Web:      www.OpenFOAM.org                      |
|    \\/     M anipulation  |                                                 |
\*---------------------------------------------------------------------------*/
/*   Windows 32 and 64 bit porting by blueCAPE: http://www.bluecape.com.pt   *\
|  Based on Windows porting (2.0.x v4) by Symscape: http://www.symscape.com   |
\*---------------------------------------------------------------------------*/
FoamFile
{
    version     2.0;
    format      ascii;
    class       volVectorField;
    location    "0.0055";
    object      U;
}
// * * * * * * * * * * * * * * * * * * * * * * * * * * * * * * * * * * * * * //

dimensions      [0 1 -1 0 0 0 0];

internalField   nonuniform List<vector> 
100
(
(0.00344456 -1.13842e-005 0)
(0.0197321 0.000190746 1.65589e-017)
(0.0885006 0.00230409 -8.58792e-018)
(0.364433 0.0157843 0)
(1.34389 0.0825755 0)
(4.36903 0.350735 9.61198e-018)
(12.1047 1.20268 4.83145e-017)
(27.8339 3.30682 -3.32106e-018)
(53.1931 7.46035 -3.26329e-017)
(87.0519 14.1698 1.03909e-017)
(126.342 23.4261 -7.33729e-017)
(166.661 34.575 7.69607e-017)
(205.768 46.1297 0)
(239.979 57.571 6.06692e-017)
(268.774 67.7008 -9.62588e-017)
(291.378 73.8152 7.42618e-017)
(307.708 75.2034 -1.04882e-016)
(308.446 63.6465 0)
(286.382 45.5383 -1.51305e-016)
(244.38 31.046 1.31472e-016)
(0.00245204 -9.49627e-005 -9.33639e-018)
(0.0137827 -0.000693043 9.1523e-018)
(0.0608429 -0.00391937 -2.24298e-017)
(0.248453 -0.0195502 5.27733e-017)
(0.912594 -0.0852879 -3.45555e-017)
(2.99472 -0.325453 -3.76463e-017)
(8.50546 -1.05791 2.91681e-017)
(20.3915 -2.85063 0)
(40.5494 -6.22864 5.37558e-017)
(68.6649 -11.4557 -6.39261e-017)
(102.825 -18.3763 -5.00686e-017)
(138.668 -26.1945 1.02796e-016)
(174.227 -34.9416 -5.12521e-017)
(206.954 -42.7051 8.44919e-017)
(236.754 -49.926 -8.40891e-017)
(263.531 -58.2177 -7.50455e-017)
(283.844 -68.0743 8.63877e-017)
(294.909 -80.8204 -9.11775e-017)
(298.267 -90.3901 3.08915e-016)
(289.238 -94.624 -2.07922e-016)
(291.768 -93.3717 0)
(297.669 -92.5684 8.29339e-016)
(303.251 -91.6896 -1.68265e-015)
(305.972 -90.3496 8.48818e-016)
(306.796 -88.6824 0)
(306.566 -86.7939 0)
(305.791 -84.7555 8.76867e-016)
(305.019 -82.6449 -1.77846e-015)
(304.39 -80.4821 8.99493e-016)
(303.793 -78.2516 0)
(303.213 -75.9541 0)
(302.638 -73.6017 9.29867e-016)
(301.861 -71.1787 -1.8788e-015)
(301.012 -68.7296 9.4564e-016)
(299.993 -66.2708 0)
(298.618 -63.8043 0)
(296.966 -61.3798 9.64106e-016)
(295.136 -59.0425 -1.9399e-015)
(293.216 -56.8415 9.75222e-016)
(291.527 -54.8539 0)
(58.4824 -63.0657 2.70553e-016)
(46.9248 -46.2089 -5.17354e-016)
(31.2321 -33.375 2.55627e-016)
(19.667 -21.6385 2.35128e-016)
(10.975 -11.9617 -2.36373e-016)
(5.33807 -5.44453 2.2538e-016)
(2.24609 -2.05393 -2.23391e-016)
(0.846877 -0.668985 -2.17048e-016)
(0.297346 -0.203846 4.26247e-016)
(0.103797 -0.0626997 -2.09094e-016)
(0.0373424 -0.0202563 2.05143e-016)
(0.013878 -0.00690489 -4.02878e-016)
(0.00526439 -0.00244903 2.96784e-016)
(0.00200809 -0.000887438 -8.67631e-022)
(0.000761 -0.000323479 -9.55303e-017)
(0.000284224 -0.000117319 9.39176e-017)
(0.000104122 -4.20445e-005 -1.38538e-016)
(3.72889e-005 -1.48352e-005 8.05987e-024)
(1.30652e-005 -5.17962e-006 4.46958e-017)
(3.40894e-006 -1.77463e-006 0)
(284.78 -61.1818 -3.84536e-016)
(280.343 -67.065 7.83882e-016)
(269.505 -67.4005 -7.88914e-016)
(241.998 -59.362 4.2441e-016)
(192.24 -43.7849 0)
(124.453 -25.2163 0)
(60.988 -10.7506 1.80083e-016)
(23.0603 -3.58308 -5.744e-016)
(7.45782 -1.05972 3.91559e-016)
(2.27118 -0.303326 0)
(0.698823 -0.0886192 0)
(0.225151 -0.0270627 0)
(0.0762005 -0.00860302 -9.78346e-017)
(0.0267149 -0.00279671 1.97423e-016)
(0.00952802 -0.000911555 -9.95943e-017)
(0.00340477 -0.000293024 1.0049e-016)
(0.0012062 -9.17321e-005 -5.07032e-017)
(0.000420553 -2.76766e-005 -1.02338e-016)
(0.000143968 -8.00402e-006 5.16438e-017)
(3.66201e-005 -2.18869e-006 0)
)
;

boundaryField
{
    inlet
    {
        type            zeroGradient;
    }
    outlet
    {
        type            zeroGradient;
    }
    bottom
    {
        type            symmetryPlane;
    }
    top
    {
        type            symmetryPlane;
    }
    obstacle
    {
        type            zeroGradient;
    }
    defaultFaces
    {
        type            empty;
    }
}


// ************************************************************************* //
