/*--------------------------------*- C++ -*----------------------------------*\
| =========                 |                                                 |
| \\      /  F ield         | OpenFOAM: The Open Source CFD Toolbox           |
|  \\    /   O peration     | Version:  5.x                                   |
|   \\  /    A nd           | Web:      www.OpenFOAM.org                      |
|    \\/     M anipulation  |                                                 |
\*---------------------------------------------------------------------------*/
/*   Windows 32 and 64 bit porting by blueCAPE: http://www.bluecape.com.pt   *\
|  Based on Windows porting (2.0.x v4) by Symscape: http://www.symscape.com   |
\*---------------------------------------------------------------------------*/
FoamFile
{
    version     2.0;
    format      ascii;
    class       volScalarField;
    location    "0.0015";
    object      mag(U);
}
// * * * * * * * * * * * * * * * * * * * * * * * * * * * * * * * * * * * * * //

dimensions      [0 1 -1 0 0 0 0];

internalField   nonuniform List<scalar> 
100
(
1.49327e-010
2.58587e-009
3.80378e-008
5.50413e-007
6.95499e-006
8.71852e-005
0.000919356
0.00956867
0.0799073
0.637607
3.83043
18.9289
58.8353
140.498
268.736
299.179
156.838
47.4696
9.25538
1.28318
1.19363e-010
2.03106e-009
2.89725e-008
4.14991e-007
5.08234e-006
6.37683e-005
0.000653667
0.00691644
0.0566975
0.470251
2.84269
15.2505
49.4081
127.886
265.405
288.425
140.56
34.1814
4.94707
0.585295
0.140531
0.109255
0.0813218
0.0602593
0.044345
0.0324118
0.0235254
0.0169552
0.0121329
0.00861966
0.00607941
0.00425658
0.0029585
0.00204112
0.00139762
0.000949461
0.00063939
0.000425953
0.000279684
0.000171751
1.53307e-006
3.1455e-007
5.88423e-008
1.12948e-008
2.09179e-009
3.87855e-010
6.95292e-011
1.20266e-011
2.0748e-012
3.98283e-013
5.49351e-014
1.54608e-013
2.6818e-013
1.31865e-013
9.05185e-014
1.43995e-013
8.11086e-014
3.9162e-014
1.67846e-013
3.55082e-013
7.30542e-005
1.34814e-005
2.87735e-006
5.35588e-007
1.00973e-007
1.79632e-008
3.13708e-009
5.29549e-010
8.71323e-011
1.42631e-011
2.16809e-012
1.52707e-013
8.59879e-014
3.62258e-013
3.14372e-014
4.66053e-014
1.99003e-013
4.61839e-013
8.79144e-014
3.52545e-013
)
;

boundaryField
{
    inlet
    {
        type            calculated;
        value           nonuniform List<scalar> 2(1.19363e-010 1.49327e-010);
    }
    outlet
    {
        type            calculated;
        value           nonuniform List<scalar> 2(3.52545e-013 3.55082e-013);
    }
    bottom
    {
        type            symmetryPlane;
    }
    top
    {
        type            symmetryPlane;
    }
    obstacle
    {
        type            calculated;
        value           nonuniform List<scalar> 
22
(
1.28318
1.53307e-006
0.140531
0.109255
0.0813218
0.0602593
0.044345
0.0324118
0.0235254
0.0169552
0.0121329
0.00861966
0.00607941
0.00425658
0.0029585
0.00204112
0.00139762
0.000949461
0.00063939
0.000425953
0.000279684
0.000171751
)
;
    }
    defaultFaces
    {
        type            empty;
    }
}


// ************************************************************************* //
