/*--------------------------------*- C++ -*----------------------------------*\
| =========                 |                                                 |
| \\      /  F ield         | OpenFOAM: The Open Source CFD Toolbox           |
|  \\    /   O peration     | Version:  5.x                                   |
|   \\  /    A nd           | Web:      www.OpenFOAM.org                      |
|    \\/     M anipulation  |                                                 |
\*---------------------------------------------------------------------------*/
/*   Windows 32 and 64 bit porting by blueCAPE: http://www.bluecape.com.pt   *\
|  Based on Windows porting (2.0.x v4) by Symscape: http://www.symscape.com   |
\*---------------------------------------------------------------------------*/
FoamFile
{
    version     2.0;
    format      ascii;
    class       surfaceScalarField;
    location    "0.0015";
    object      phi;
}
// * * * * * * * * * * * * * * * * * * * * * * * * * * * * * * * * * * * * * //

dimensions      [1 0 -1 0 0 0 0];

internalField   nonuniform List<scalar> 
137
(
1.07183e-009
2.40608e-012
1.60918e-008
5.13039e-011
2.2887e-007
9.24524e-010
2.93397e-006
1.66541e-008
3.62332e-005
2.57232e-007
0.000390163
4.0229e-006
0.00401255
5.02669e-005
0.0347236
0.000623566
0.277114
0.00618211
1.77171
0.0585432
9.45287
0.407962
37.3931
2.34954
81.8318
7.52355
111.473
17.5717
68.5174
22.1989
30.4611
15.078
10.6736
6.66729
2.29187
1.75239
0.347541
0.319212
0.0442792
1.47584e-009
2.27004e-008
3.36476e-007
4.44378e-006
5.76685e-005
0.000643535
0.00705084
0.064051
0.554999
3.82153
22.8561
103.034
266.165
434.118
294.649
131.06
40.6135
7.16634
0.869946
0.0685437
0.0511941
0.0379899
0.0280092
0.0205132
0.0149211
0.010778
0.00773029
0.00550471
0.00389153
0.00273103
0.00190254
0.00131561
0.000903001
0.000615144
0.00041581
0.000278743
0.000185067
0.000121315
7.79346e-005
4.82271e-005
5.7029e-010
-1.17987e-007
2.36274e-009
-2.2803e-008
9.02512e-010
-4.48054e-009
2.54863e-010
-8.23717e-010
5.89004e-011
-1.48257e-010
1.2367e-011
-2.56881e-011
2.4265e-012
-4.3385e-012
4.44089e-013
-7.12402e-013
8.52651e-014
-1.13104e-013
1.24345e-014
-1.68476e-014
-2.4869e-014
-1.58207e-015
8.88178e-015
5.82867e-016
3.37508e-014
1.33227e-015
2.13163e-014
1.38778e-016
2.66454e-014
1.66533e-016
1.59872e-014
-1.27676e-015
1.24345e-014
-1.83187e-015
-1.77636e-014
-5.82867e-016
-3.90799e-014
6.66134e-016
2.35922e-015
1.05268e-005
2.07353e-006
4.04049e-007
7.46591e-008
1.34363e-008
2.3326e-009
3.93989e-010
6.46878e-011
1.03633e-011
1.64135e-012
2.27374e-013
-1.06581e-014
-5.68434e-014
-4.9738e-014
-7.10543e-015
3.90799e-014
1.10134e-013
9.9476e-014
7.81597e-014
)
;

boundaryField
{
    inlet
    {
        type            calculated;
        value           nonuniform List<scalar> 2(-1.2258e-010 -9.11893e-011);
    }
    outlet
    {
        type            calculated;
        value           nonuniform List<scalar> 2(1.05646e-013 -6.38444e-014);
    }
    bottom
    {
        type            symmetryPlane;
        value           uniform 0;
    }
    top
    {
        type            symmetryPlane;
        value           uniform 0;
    }
    obstacle
    {
        type            calculated;
        value           nonuniform List<scalar> 
22
(
0.0768034
2.50287e-008
0.000342575
0.000262486
0.000192665
0.000140751
0.000102061
7.34641e-005
5.24851e-005
3.7214e-005
2.61855e-005
1.82844e-005
1.26695e-005
8.71163e-006
5.94432e-006
4.02497e-006
2.70423e-006
1.80223e-006
1.19041e-006
7.77578e-007
5.00075e-007
2.99751e-007
)
;
    }
    defaultFaces
    {
        type            empty;
        value           nonuniform 0();
    }
}


// ************************************************************************* //
