/*--------------------------------*- C++ -*----------------------------------*\
| =========                 |                                                 |
| \\      /  F ield         | OpenFOAM: The Open Source CFD Toolbox           |
|  \\    /   O peration     | Version:  5.x                                   |
|   \\  /    A nd           | Web:      www.OpenFOAM.org                      |
|    \\/     M anipulation  |                                                 |
\*---------------------------------------------------------------------------*/
/*   Windows 32 and 64 bit porting by blueCAPE: http://www.bluecape.com.pt   *\
|  Based on Windows porting (2.0.x v4) by Symscape: http://www.symscape.com   |
\*---------------------------------------------------------------------------*/
FoamFile
{
    version     2.0;
    format      ascii;
    class       volVectorField;
    location    "0.0015";
    object      U;
}
// * * * * * * * * * * * * * * * * * * * * * * * * * * * * * * * * * * * * * //

dimensions      [0 1 -1 0 0 0 0];

internalField   nonuniform List<vector> 
100
(
(1.49315e-010 1.92351e-012 0)
(2.58472e-009 7.71293e-011 1.65613e-017)
(3.79929e-008 1.84808e-009 -8.58737e-018)
(5.49098e-007 3.8022e-008 0)
(6.92644e-006 6.29602e-007 0)
(8.66135e-005 9.96807e-006 9.66079e-018)
(0.000910441 0.000127724 5.04035e-017)
(0.00943491 0.00159433 -5.50898e-021)
(0.0783763 0.015567 -3.31228e-017)
(0.620987 0.144627 1.15824e-017)
(3.69974 0.992003 -9.43227e-017)
(18.0935 5.56147 9.00684e-017)
(55.589 19.2733 0)
(130.683 51.5914 6.15016e-017)
(247.333 105.097 -1.41408e-016)
(272.037 124.515 1.02419e-016)
(139.115 72.4243 -1.67787e-016)
(40.0235 25.524 0)
(7.32365 5.65917 -1.50929e-016)
(0.961559 0.849673 1.31876e-016)
(1.19349e-010 -1.81705e-012 -9.3366e-018)
(2.03043e-009 -5.03554e-011 9.15232e-018)
(2.89547e-008 -1.0171e-009 -2.2438e-017)
(4.14574e-007 -1.85941e-008 5.28286e-017)
(5.07468e-006 -2.79e-007 -3.45628e-017)
(6.36378e-005 -4.07689e-006 -3.81719e-017)
(0.000651879 -4.83207e-005 2.91559e-017)
(0.006893 -0.000568944 0)
(0.0564561 -0.00522577 6.02653e-017)
(0.467903 -0.0469371 -6.71728e-017)
(2.82571 -0.310199 -6.05944e-017)
(15.1462 -1.78061 1.19982e-016)
(49.0318 -6.08657 -6.00648e-017)
(126.941 -15.5248 8.28912e-017)
(263.811 -29.0396 -1.24287e-016)
(286.77 -30.8469 -9.27028e-017)
(139.792 -14.667 1.39974e-016)
(34.0046 -3.47226 -8.75872e-017)
(4.92356 -0.481733 2.70784e-016)
(0.582497 -0.0571627 -1.71679e-016)
(0.139114 -0.0199099 0)
(0.108135 -0.0156068 1.33215e-015)
(0.0804759 -0.0116993 -2.68736e-015)
(0.0596234 -0.00873121 1.35269e-015)
(0.0438702 -0.00647164 0)
(0.0320597 -0.00476446 0)
(0.023266 -0.00348346 1.3843e-015)
(0.0167655 -0.00252908 -2.79313e-015)
(0.0119951 -0.00182319 1.40626e-015)
(0.00852031 -0.00130494 0)
(0.00600827 -0.000927296 0)
(0.00420601 -0.00065418 1.44042e-015)
(0.00292281 -0.000458155 -2.90721e-015)
(0.00201611 -0.00031852 1.46414e-015)
(0.00138022 -0.000219791 0)
(0.000937461 -0.00015048 0)
(0.00063118 -0.000102134 1.50121e-015)
(0.000420396 -6.85793e-005 -3.03094e-015)
(0.000275977 -4.53888e-005 1.52699e-015)
(0.000169438 -2.80896e-005 0)
(2.40881e-007 -1.51403e-006 2.51508e-016)
(1.18151e-007 -2.91517e-007 -4.919e-016)
(2.38231e-008 -5.38041e-008 2.40632e-016)
(5.7988e-009 -9.69264e-009 2.3554e-016)
(1.28305e-009 -1.65208e-009 -2.30658e-016)
(2.70807e-010 -2.7766e-010 2.25974e-016)
(5.22433e-011 -4.58797e-011 -2.21477e-016)
(9.39584e-012 -7.50713e-012 -2.17156e-016)
(1.71645e-012 -1.16559e-012 4.26e-016)
(3.75469e-013 -1.32861e-013 -2.09e-016)
(-5.47865e-014 -4.03336e-015 2.05147e-016)
(-1.53794e-013 -1.58414e-014 -4.02869e-016)
(2.56251e-013 7.90957e-014 2.9678e-016)
(1.31859e-013 1.274e-015 -3.53607e-032)
(8.73361e-014 2.37905e-014 -9.553e-017)
(1.42642e-013 -1.9696e-014 9.39177e-017)
(7.47525e-014 -3.14747e-014 -1.38538e-016)
(3.89988e-014 -3.57241e-015 -1.65257e-032)
(-1.67256e-013 1.40601e-014 4.46958e-017)
(-3.50557e-013 5.65042e-014 0)
(7.18184e-005 -1.33801e-005 -3.54012e-016)
(1.32628e-005 -2.41744e-006 7.13699e-016)
(2.83562e-006 -4.88226e-007 -7.19466e-016)
(5.28435e-007 -8.72407e-008 3.62664e-016)
(9.97578e-008 -1.56153e-008 0)
(1.7768e-008 -2.64093e-009 0)
(3.10663e-009 -4.36037e-010 1.85875e-016)
(5.24991e-010 -6.93312e-011 -5.6232e-016)
(8.64709e-011 -1.07153e-011 3.78063e-016)
(1.41738e-011 -1.5943e-012 0)
(2.15754e-012 -2.13611e-013 0)
(1.52547e-013 -6.99174e-015 0)
(8.20737e-014 2.5648e-014 -9.78395e-017)
(-3.62257e-013 -6.46888e-016 1.97415e-016)
(-3.13285e-014 2.61071e-015 -9.95905e-017)
(3.16114e-014 -3.42456e-014 1.0049e-016)
(1.91396e-013 -5.44948e-014 -5.07027e-017)
(4.61429e-013 -1.94498e-014 -1.02338e-016)
(8.66439e-014 -1.48919e-014 5.16438e-017)
(3.49822e-013 4.37278e-014 0)
)
;

boundaryField
{
    inlet
    {
        type            zeroGradient;
    }
    outlet
    {
        type            zeroGradient;
    }
    bottom
    {
        type            symmetryPlane;
    }
    top
    {
        type            symmetryPlane;
    }
    obstacle
    {
        type            zeroGradient;
    }
    defaultFaces
    {
        type            empty;
    }
}


// ************************************************************************* //
