/*--------------------------------*- C++ -*----------------------------------*\
| =========                 |                                                 |
| \\      /  F ield         | OpenFOAM: The Open Source CFD Toolbox           |
|  \\    /   O peration     | Version:  5.x                                   |
|   \\  /    A nd           | Web:      www.OpenFOAM.org                      |
|    \\/     M anipulation  |                                                 |
\*---------------------------------------------------------------------------*/
/*   Windows 32 and 64 bit porting by blueCAPE: http://www.bluecape.com.pt   *\
|  Based on Windows porting (2.0.x v4) by Symscape: http://www.symscape.com   |
\*---------------------------------------------------------------------------*/
FoamFile
{
    version     2.0;
    format      ascii;
    class       volScalarField;
    location    "0.0075";
    object      mag(U);
}
// * * * * * * * * * * * * * * * * * * * * * * * * * * * * * * * * * * * * * //

dimensions      [0 1 -1 0 0 0 0];

internalField   nonuniform List<scalar> 
100
(
0.160226
0.674052
2.06081
5.66746
13.5772
27.7879
48.7713
75.5214
106.43
139.413
173.436
206.391
238.479
267.916
292.523
311.699
321.798
319.627
304.307
282.3
0.114832
0.476719
1.45477
4.03241
9.86643
20.8946
37.8573
60.0252
86.1224
114.26
143.726
172.244
200.188
226.468
250.259
271.522
289.925
304.809
313.683
320.434
321.177
324.756
329.207
331.254
331.947
331.677
330.973
329.859
328.373
326.955
325.629
324.502
323.6
322.89
322.316
321.948
321.776
321.689
321.601
321.35
219.742
220.736
222.599
223.23
222.302
220.839
219.08
216.408
211.414
201.633
183.519
153.671
112.366
68.4631
34.7555
15.1214
5.69961
1.87623
0.559815
0.135567
320.142
318.881
317.2
315.057
312.542
310.225
308.266
306.182
303.53
299.866
294.975
288.388
278.514
260.889
224.574
160.367
85.4115
33.2714
10.3001
2.24639
)
;

boundaryField
{
    inlet
    {
        type            calculated;
        value           nonuniform List<scalar> 2(0.114832 0.160226);
    }
    outlet
    {
        type            calculated;
        value           nonuniform List<scalar> 2(2.24639 0.135567);
    }
    bottom
    {
        type            symmetryPlane;
    }
    top
    {
        type            symmetryPlane;
    }
    obstacle
    {
        type            calculated;
        value           nonuniform List<scalar> 
22
(
282.3
219.742
321.177
324.756
329.207
331.254
331.947
331.677
330.973
329.859
328.373
326.955
325.629
324.502
323.6
322.89
322.316
321.948
321.776
321.689
321.601
321.35
)
;
    }
    defaultFaces
    {
        type            empty;
    }
}


// ************************************************************************* //
