/*--------------------------------*- C++ -*----------------------------------*\
| =========                 |                                                 |
| \\      /  F ield         | OpenFOAM: The Open Source CFD Toolbox           |
|  \\    /   O peration     | Version:  5.x                                   |
|   \\  /    A nd           | Web:      www.OpenFOAM.org                      |
|    \\/     M anipulation  |                                                 |
\*---------------------------------------------------------------------------*/
/*   Windows 32 and 64 bit porting by blueCAPE: http://www.bluecape.com.pt   *\
|  Based on Windows porting (2.0.x v4) by Symscape: http://www.symscape.com   |
\*---------------------------------------------------------------------------*/
FoamFile
{
    version     2.0;
    format      ascii;
    class       volScalarField;
    location    "0.0075";
    object      p;
}
// * * * * * * * * * * * * * * * * * * * * * * * * * * * * * * * * * * * * * //

dimensions      [1 -1 -2 0 0 0 0];

internalField   nonuniform List<scalar> 
100
(
99941.5
99767.5
99274.6
97979.9
95112.6
89967.8
82801
74374.2
65505.4
56795.4
48732.3
41419.5
34972.1
29322.1
24689.6
21059.3
18197.9
17561.5
17951
19230
99957.7
99834.3
99484.9
98558.4
96446.9
92430.4
86479.4
79326.9
71704.2
64220.7
57456.2
51406.3
46301.8
41739.8
38266.7
35223.4
33285.4
32111.4
30386
29667.7
28211
27958.1
27529.8
27241.8
27105.7
27080
27115.1
27145.1
27223.5
27308.5
27382.8
27438
27470.2
27477.9
27471.2
27452.2
27409
27353
27296.9
27254.9
28871.8
28730.6
28391.6
27936.9
27523.3
27107.3
26608.9
25951.8
25004.3
23570.6
21464.1
18656.7
15551.1
12927.4
11311.8
10523.2
10185.4
10058.9
10017.7
10005.2
27214.5
27201.4
27223.4
27302.6
27423.9
27644
27818.5
27979
28100.6
28168.8
28176.8
28055.4
27589.5
26241
22892.2
17829.2
13683.5
11329.3
10390.5
10102.8
)
;

boundaryField
{
    inlet
    {
        type            zeroGradient;
    }
    outlet
    {
        type            zeroGradient;
    }
    bottom
    {
        type            symmetryPlane;
    }
    top
    {
        type            symmetryPlane;
    }
    obstacle
    {
        type            zeroGradient;
    }
    defaultFaces
    {
        type            empty;
    }
}


// ************************************************************************* //
