/*--------------------------------*- C++ -*----------------------------------*\
| =========                 |                                                 |
| \\      /  F ield         | OpenFOAM: The Open Source CFD Toolbox           |
|  \\    /   O peration     | Version:  5.x                                   |
|   \\  /    A nd           | Web:      www.OpenFOAM.org                      |
|    \\/     M anipulation  |                                                 |
\*---------------------------------------------------------------------------*/
/*   Windows 32 and 64 bit porting by blueCAPE: http://www.bluecape.com.pt   *\
|  Based on Windows porting (2.0.x v4) by Symscape: http://www.symscape.com   |
\*---------------------------------------------------------------------------*/
FoamFile
{
    version     2.0;
    format      ascii;
    class       surfaceScalarField;
    location    "0.0075";
    object      phi;
}
// * * * * * * * * * * * * * * * * * * * * * * * * * * * * * * * * * * * * * //

dimensions      [1 0 -1 0 0 0 0];

internalField   nonuniform List<scalar> 
137
(
0.54134
0.00276518
1.70191
0.0122145
4.77343
0.044024
11.7771
0.142168
24.9467
0.394046
44.0859
0.914729
65.1105
1.80454
84.2973
3.05187
99.0347
4.56
107.564
6.17134
111.227
7.63608
109.908
9.15809
102.683
9.98613
93.4904
10.4258
84.5956
11.188
73.7155
11.3468
62.8746
10.1866
50.5331
8.36966
39.245
4.99904
-0.0966118
0.669393
2.21229
6.57153
17.3792
40.0811
78.9706
129.246
184.183
237.869
284.938
326.704
359.918
381.569
404.304
431.62
443.334
446.153
417.137
376.801
340.498
335.242
330.311
325.465
320.674
315.793
311.12
306.378
301.765
297.217
292.746
288.378
284.042
279.839
275.64
271.539
267.445
263.375
259.346
255.266
251.203
37.8953
-6.52684
40.9625
-6.28597
44.4001
-6.26564
47.4976
-6.20566
50.1849
-6.07191
52.3672
-6.05534
53.8451
-6.06071
54.1961
-6.07704
52.625
-6.09721
48.1075
-6.07832
39.9138
-5.97593
28.6575
-5.58738
17.0512
-4.48015
8.30636
-2.6625
3.46173
-1.36645
1.29594
-0.662299
0.440056
-0.260098
0.138453
-0.0771999
0.0409459
-0.0197365
-0.00468439
240.211
230.427
223.864
219.97
218.206
217.142
215.472
213.021
209.707
205.413
199.805
191.501
176.87
148.455
100.338
52.5171
20.6916
6.32007
1.62714
)
;

boundaryField
{
    inlet
    {
        type            calculated;
        value           nonuniform List<scalar> 2(-0.243919 -0.2047);
    }
    outlet
    {
        type            calculated;
        value           nonuniform List<scalar> 2(0.36378 0.0107597);
    }
    bottom
    {
        type            symmetryPlane;
        value           uniform 0;
    }
    top
    {
        type            symmetryPlane;
        value           uniform 0;
    }
    obstacle
    {
        type            calculated;
        value           nonuniform List<scalar> 
22
(
32.6261
-34.6627
4.07028
4.02861
3.98608
3.95698
3.91812
3.88682
3.85232
3.81279
3.78148
3.74184
3.709
3.66864
3.63324
3.5931
3.55514
3.51652
3.47593
3.43581
3.39577
3.35461
)
;
    }
    defaultFaces
    {
        type            empty;
        value           nonuniform 0();
    }
}


// ************************************************************************* //
