/*--------------------------------*- C++ -*----------------------------------*\
| =========                 |                                                 |
| \\      /  F ield         | OpenFOAM: The Open Source CFD Toolbox           |
|  \\    /   O peration     | Version:  5.x                                   |
|   \\  /    A nd           | Web:      www.OpenFOAM.org                      |
|    \\/     M anipulation  |                                                 |
\*---------------------------------------------------------------------------*/
/*   Windows 32 and 64 bit porting by blueCAPE: http://www.bluecape.com.pt   *\
|  Based on Windows porting (2.0.x v4) by Symscape: http://www.symscape.com   |
\*---------------------------------------------------------------------------*/
FoamFile
{
    version     2.0;
    format      ascii;
    class       volScalarField;
    location    "0.0075";
    object      T;
}
// * * * * * * * * * * * * * * * * * * * * * * * * * * * * * * * * * * * * * //

dimensions      [0 0 0 1 0 0 0];

internalField   nonuniform List<scalar> 
100
(
348.374
348.2
347.706
346.404
343.496
338.144
330.329
320.497
309.458
296.679
287.567
270.426
261.453
255.756
244.146
231.617
227.419
230.375
243.948
288.206
348.39
348.267
347.917
346.988
344.855
340.721
334.358
326.258
317.075
306.747
299.205
284.774
280.257
274.585
260.065
249.986
249.456
255.238
282.038
304.726
321.724
323.994
325.414
326.204
328.48
330.496
332.909
335.337
337.362
340.109
342.101
344.671
346.657
348.966
351.027
353.147
355.322
357.432
359.614
362.038
432.868
430.779
424.438
414.642
407.082
400.793
395.182
389.535
382.982
374.299
361.785
344.193
322.551
302.147
289.047
282.812
280.176
279.2
278.883
278.786
368.449
380.497
388.598
391.359
390.508
387.734
384.752
382.943
381.882
381.151
381.154
381.382
380.874
377.09
362.553
332.764
305.947
288.791
281.697
279.524
)
;

boundaryField
{
    inlet
    {
        type            zeroGradient;
    }
    outlet
    {
        type            zeroGradient;
    }
    bottom
    {
        type            symmetryPlane;
    }
    top
    {
        type            symmetryPlane;
    }
    obstacle
    {
        type            zeroGradient;
    }
    defaultFaces
    {
        type            empty;
    }
}


// ************************************************************************* //
