/*--------------------------------*- C++ -*----------------------------------*\
| =========                 |                                                 |
| \\      /  F ield         | OpenFOAM: The Open Source CFD Toolbox           |
|  \\    /   O peration     | Version:  5.x                                   |
|   \\  /    A nd           | Web:      www.OpenFOAM.org                      |
|    \\/     M anipulation  |                                                 |
\*---------------------------------------------------------------------------*/
/*   Windows 32 and 64 bit porting by blueCAPE: http://www.bluecape.com.pt   *\
|  Based on Windows porting (2.0.x v4) by Symscape: http://www.symscape.com   |
\*---------------------------------------------------------------------------*/
FoamFile
{
    version     2.0;
    format      ascii;
    class       volVectorField;
    location    "0.0075";
    object      U;
}
// * * * * * * * * * * * * * * * * * * * * * * * * * * * * * * * * * * * * * //

dimensions      [0 1 -1 0 0 0 0];

internalField   nonuniform List<vector> 
100
(
(0.160211 -0.00217086 0)
(0.674051 -0.00125624 1.65038e-017)
(2.06065 0.0257872 -8.59731e-018)
(5.66535 0.154611 0)
(13.565 0.573565 0)
(27.7421 1.59444 9.35247e-018)
(48.6377 3.60637 4.51451e-017)
(75.207 6.88432 -4.39489e-018)
(105.804 11.5251 -3.07074e-017)
(138.328 17.3652 9.75268e-018)
(171.749 24.137 -7.04785e-017)
(203.972 31.5064 7.16794e-017)
(235.32 38.6873 0)
(264.11 45.0005 6.14172e-017)
(288.222 49.9816 -9.72224e-017)
(307.185 52.857 7.43875e-017)
(317.898 49.9449 -1.02523e-016)
(317.216 39.1853 0)
(303.756 18.3173 -1.27773e-016)
(282.265 -4.43937 1.19003e-016)
(0.114672 -0.00606753 -9.3293e-018)
(0.475744 -0.0304715 9.15152e-018)
(1.45009 -0.116588 -2.23002e-017)
(4.01366 -0.38844 5.22247e-017)
(9.80366 -1.11113 -3.44425e-017)
(20.7212 -2.68664 -3.5892e-017)
(37.4654 -5.43336 2.88053e-017)
(59.2638 -9.53045 0)
(84.8046 -15.008 5.06506e-017)
(112.18 -21.702 -5.99656e-017)
(140.66 -29.5269 -4.84663e-017)
(168.041 -37.8189 9.81351e-017)
(194.57 -47.0939 -4.82867e-017)
(219.303 -56.5158 8.60504e-017)
(241.646 -65.0897 -8.31267e-017)
(261.38 -73.5142 -7.4497e-017)
(277.802 -82.9631 7.86744e-017)
(289.979 -93.9178 -7.37149e-017)
(295.04 -106.527 2.48762e-016)
(297.539 -118.949 -1.75527e-016)
(298.449 -118.671 0)
(302.248 -118.797 6.54844e-016)
(306.936 -119.026 -1.33186e-015)
(309.19 -118.873 6.73741e-016)
(310.079 -118.49 0)
(310.004 -117.927 0)
(309.504 -117.263 7.00041e-016)
(308.602 -116.498 -1.42355e-015)
(307.34 -115.633 7.2134e-016)
(306.162 -114.736 0)
(305.093 -113.808 0)
(304.241 -112.866 7.59484e-016)
(303.632 -111.913 -1.54227e-015)
(303.231 -110.946 7.82154e-016)
(302.981 -109.954 0)
(302.954 -108.948 0)
(303.136 -107.929 8.15659e-016)
(303.416 -106.877 -1.65727e-015)
(303.707 -105.778 8.40443e-016)
(303.848 -104.605 0)
(197.83 -95.6541 3.84771e-016)
(200.791 -91.6923 -6.56359e-016)
(205.885 -84.6265 3.16289e-016)
(209.586 -76.8452 2.96891e-016)
(211.185 -69.4195 -2.8837e-016)
(211.856 -62.3428 2.72617e-016)
(211.902 -55.6202 -2.67882e-016)
(210.692 -49.4098 -2.51929e-016)
(206.796 -43.9464 4.94706e-016)
(197.73 -39.4808 -2.4827e-016)
(179.943 -36.0543 2.17913e-016)
(150.05 -33.1636 -4.46952e-016)
(108.426 -29.495 3.33532e-016)
(64.2782 -23.5692 -1.66996e-017)
(31.1074 -15.5009 -1.04632e-016)
(12.838 -7.99017 9.32446e-017)
(4.6746 -3.26093 -1.40245e-016)
(1.53838 -1.07407 3.79527e-019)
(0.469784 -0.304459 4.48021e-017)
(0.109007 -0.0805975 0)
(304.396 -99.1671 -3.58287e-016)
(304.481 -94.7419 7.46486e-016)
(303.623 -91.8098 -7.68676e-016)
(301.704 -90.7517 3.8993e-016)
(298.857 -91.4709 0)
(295.808 -93.4712 0)
(292.997 -95.8161 1.98777e-016)
(290.273 -97.413 -5.98867e-016)
(287.506 -97.3186 4.0169e-016)
(284.46 -94.8776 0)
(280.994 -89.7347 0)
(276.581 -81.6728 0)
(269.436 -70.5311 -1.04081e-016)
(254.748 -56.273 2.1448e-016)
(221.125 -39.2057 -1.19657e-016)
(158.905 -21.6042 9.64289e-017)
(84.9908 -8.46732 -7.40608e-017)
(33.1891 -2.33809 -1.07905e-016)
(10.2868 -0.52369 5.43661e-017)
(2.24388 -0.106049 0)
)
;

boundaryField
{
    inlet
    {
        type            zeroGradient;
    }
    outlet
    {
        type            zeroGradient;
    }
    bottom
    {
        type            symmetryPlane;
    }
    top
    {
        type            symmetryPlane;
    }
    obstacle
    {
        type            zeroGradient;
    }
    defaultFaces
    {
        type            empty;
    }
}


// ************************************************************************* //
