/*--------------------------------*- C++ -*----------------------------------*\
| =========                 |                                                 |
| \\      /  F ield         | OpenFOAM: The Open Source CFD Toolbox           |
|  \\    /   O peration     | Version:  5.x                                   |
|   \\  /    A nd           | Web:      www.OpenFOAM.org                      |
|    \\/     M anipulation  |                                                 |
\*---------------------------------------------------------------------------*/
/*   Windows 32 and 64 bit porting by blueCAPE: http://www.bluecape.com.pt   *\
|  Based on Windows porting (2.0.x v4) by Symscape: http://www.symscape.com   |
\*---------------------------------------------------------------------------*/
FoamFile
{
    version     2.0;
    format      ascii;
    class       volScalarField;
    location    "0.001";
    object      mag(U);
}
// * * * * * * * * * * * * * * * * * * * * * * * * * * * * * * * * * * * * * //

dimensions      [0 1 -1 0 0 0 0];

internalField   nonuniform List<scalar> 
10000
(
1.25551e-012
5.90951e-012
6.97354e-013
2.74303e-013
4.92459e-012
1.52696e-012
3.5674e-012
2.80328e-012
2.89058e-012
3.71072e-012
2.59229e-012
2.22945e-011
2.96145e-010
6.48905e-009
7.44133e-008
1.28542e-006
1.2495e-005
0.000166283
0.00133983
0.0132404
0.0856657
0.582147
2.59989
10.3302
29.1173
68.3807
127.63
183.26
231.962
278.832
315.564
312.283
244.243
104.245
17.4294
2.69253
0.416589
0.0648669
0.0097249
0.00139982
0.000194031
2.54653e-005
3.28252e-006
3.95927e-007
4.80717e-008
5.38769e-009
6.23188e-010
6.57837e-011
6.87623e-012
6.71064e-012
1.40476e-012
4.70292e-012
5.9773e-012
5.75487e-012
9.27394e-012
9.4374e-012
7.3727e-012
5.86905e-012
5.00593e-012
3.06147e-012
3.08199e-012
2.52663e-012
1.43534e-012
6.65158e-012
4.25136e-012
1.72383e-012
4.63281e-012
2.6874e-012
1.70949e-012
3.3968e-012
9.31828e-013
2.21827e-011
2.9601e-010
6.48893e-009
7.44134e-008
1.28542e-006
1.2495e-005
0.000166283
0.00133983
0.0132404
0.0856657
0.582147
2.59989
10.3302
29.1173
68.3807
127.63
183.26
231.962
278.832
315.564
312.283
244.243
104.245
17.4294
2.69253
0.416589
0.0648669
0.0097249
0.00139982
0.000194031
2.54653e-005
3.28252e-006
3.95927e-007
4.80726e-008
5.3878e-009
6.22834e-010
6.59449e-011
7.27716e-012
9.08709e-012
2.31917e-012
3.69616e-012
6.14028e-012
6.1864e-012
7.58458e-012
5.96787e-012
6.60445e-012
7.09986e-012
5.24923e-012
4.86971e-012
1.24854e-012
9.38991e-012
1.56019e-012
7.05507e-012
2.894e-012
1.59329e-012
2.6403e-012
7.20675e-012
4.13961e-013
3.57296e-012
2.98388e-012
2.23687e-011
2.96061e-010
6.48885e-009
7.44134e-008
1.28542e-006
1.2495e-005
0.000166283
0.00133983
0.0132404
0.0856657
0.582147
2.59989
10.3302
29.1173
68.3807
127.63
183.26
231.962
278.832
315.564
312.283
244.243
104.245
17.4294
2.69253
0.416589
0.0648669
0.0097249
0.00139982
0.000194031
2.54653e-005
3.28252e-006
3.95927e-007
4.80712e-008
5.3877e-009
6.23057e-010
6.57042e-011
5.91559e-012
7.25344e-012
2.14815e-012
5.95776e-012
5.43736e-012
4.91094e-012
9.44938e-012
6.01474e-012
8.11837e-012
5.97278e-012
5.12311e-012
3.53092e-012
2.12347e-012
1.44396e-012
2.73927e-012
1.53142e-012
3.39247e-012
1.97979e-012
4.28018e-012
9.2624e-012
8.53631e-013
5.16347e-012
1.47502e-012
2.20999e-011
2.95989e-010
6.48891e-009
7.44134e-008
1.28542e-006
1.2495e-005
0.000166283
0.00133983
0.0132404
0.0856657
0.582147
2.59989
10.3302
29.1173
68.3807
127.63
183.26
231.962
278.832
315.564
312.283
244.243
104.245
17.4294
2.69253
0.416589
0.0648669
0.0097249
0.00139982
0.000194031
2.54653e-005
3.28252e-006
3.95927e-007
4.80731e-008
5.38745e-009
6.22218e-010
6.58337e-011
8.45056e-012
4.41894e-012
3.34807e-012
3.71559e-012
7.8561e-012
6.62635e-012
6.69579e-012
1.42569e-012
5.03728e-012
5.81627e-012
4.64328e-012
2.7524e-012
1.07014e-012
5.24104e-012
5.40355e-012
2.97051e-012
2.93775e-012
5.91776e-012
3.01376e-012
6.03721e-012
3.8045e-012
3.85829e-012
5.2416e-012
2.22593e-011
2.96107e-010
6.48898e-009
7.44134e-008
1.28542e-006
1.2495e-005
0.000166283
0.00133983
0.0132404
0.0856657
0.582147
2.59989
10.3302
29.1173
68.3807
127.63
183.26
231.962
278.832
315.564
312.283
244.243
104.245
17.4294
2.69253
0.416589
0.0648669
0.0097249
0.00139982
0.000194031
2.54653e-005
3.28252e-006
3.95927e-007
4.80712e-008
5.3874e-009
6.22289e-010
6.57372e-011
6.20417e-012
5.9509e-012
4.35256e-012
5.34567e-012
6.19886e-012
4.17791e-012
9.04916e-012
4.32474e-012
7.65174e-012
6.76133e-012
4.71166e-012
1.16029e-012
1.10721e-012
3.64245e-012
9.10307e-012
1.41047e-012
2.53773e-012
1.13413e-012
3.26267e-012
9.42622e-012
8.13637e-013
5.03746e-012
5.91917e-012
2.18898e-011
2.96189e-010
6.48907e-009
7.44129e-008
1.28542e-006
1.2495e-005
0.000166283
0.00133983
0.0132404
0.0856657
0.582147
2.59989
10.3302
29.1173
68.3807
127.63
183.26
231.962
278.832
315.564
312.283
244.243
104.245
17.4294
2.69253
0.416589
0.0648669
0.0097249
0.00139982
0.000194031
2.54653e-005
3.28252e-006
3.95928e-007
4.80731e-008
5.38715e-009
6.2214e-010
6.54486e-011
8.95284e-012
3.20045e-012
1.87424e-012
3.51915e-012
6.81883e-012
8.24305e-012
6.66271e-012
1.85291e-012
4.67669e-012
5.83226e-012
2.80318e-012
3.28773e-012
9.93034e-013
4.02109e-013
7.6028e-012
4.6645e-012
2.77262e-012
8.15598e-012
3.28668e-012
9.16802e-012
1.79119e-012
4.16583e-012
1.26872e-013
2.20637e-011
2.96276e-010
6.48926e-009
7.44132e-008
1.28542e-006
1.2495e-005
0.000166283
0.00133983
0.0132404
0.0856657
0.582147
2.59989
10.3302
29.1173
68.3807
127.63
183.26
231.962
278.832
315.564
312.283
244.243
104.245
17.4294
2.69253
0.416589
0.0648669
0.0097249
0.00139982
0.000194031
2.54653e-005
3.28252e-006
3.95927e-007
4.80715e-008
5.38662e-009
6.22062e-010
6.63857e-011
5.99322e-012
5.65702e-012
9.18028e-012
5.2459e-012
4.28588e-012
8.63817e-012
8.22769e-012
2.33471e-012
8.58792e-012
6.10985e-012
3.45956e-012
4.30576e-012
3.97364e-012
4.74268e-013
1.01087e-011
2.7845e-012
3.26188e-012
4.32824e-012
3.18652e-012
5.51442e-012
2.71177e-012
3.62023e-012
7.56396e-013
2.22695e-011
2.9632e-010
6.48933e-009
7.44129e-008
1.28542e-006
1.2495e-005
0.000166283
0.00133983
0.0132404
0.0856657
0.582147
2.59989
10.3302
29.1173
68.3807
127.63
183.26
231.962
278.832
315.564
312.283
244.243
104.245
17.4294
2.69253
0.416589
0.0648669
0.0097249
0.00139982
0.000194031
2.54653e-005
3.28252e-006
3.95927e-007
4.80736e-008
5.38698e-009
6.22336e-010
6.54495e-011
9.45325e-012
2.9988e-012
4.12486e-012
3.50982e-012
6.43895e-012
7.50568e-012
5.72865e-012
1.13301e-012
3.12226e-012
6.21637e-012
2.14082e-012
3.64615e-012
3.14393e-013
2.46964e-013
4.00733e-012
2.09411e-012
4.12424e-012
5.24225e-012
3.32517e-012
5.57688e-012
4.54955e-012
4.39507e-012
3.56826e-012
2.23698e-011
2.96543e-010
6.48958e-009
7.44131e-008
1.28542e-006
1.2495e-005
0.000166283
0.00133983
0.0132404
0.0856657
0.582147
2.59989
10.3302
29.1173
68.3807
127.63
183.26
231.962
278.832
315.564
312.283
244.243
104.245
17.4294
2.69253
0.416589
0.0648669
0.0097249
0.00139982
0.000194031
2.54653e-005
3.28252e-006
3.95927e-007
4.80718e-008
5.38649e-009
6.22013e-010
6.58538e-011
5.61249e-012
4.31362e-012
3.77358e-012
6.92574e-012
3.08231e-012
8.64596e-012
7.56496e-012
3.51895e-012
7.60515e-012
6.99627e-012
3.16352e-012
3.57392e-012
4.80733e-013
1.66296e-012
4.10811e-012
4.88634e-012
2.94733e-012
3.0757e-012
3.27111e-012
5.40735e-012
4.14068e-012
3.9854e-012
8.00534e-012
2.29683e-011
2.96695e-010
6.48947e-009
7.44127e-008
1.28542e-006
1.2495e-005
0.000166283
0.00133983
0.0132404
0.0856657
0.582147
2.59989
10.3302
29.1173
68.3807
127.63
183.26
231.962
278.832
315.564
312.283
244.243
104.245
17.4294
2.69253
0.416589
0.0648669
0.0097249
0.00139982
0.000194031
2.54653e-005
3.28252e-006
3.95927e-007
4.80735e-008
5.38719e-009
6.22664e-010
6.54715e-011
9.21447e-012
3.47542e-012
1.26464e-012
2.5362e-012
6.03148e-012
7.08951e-012
4.50932e-012
4.31826e-012
3.99955e-012
3.46596e-012
6.93593e-013
3.63449e-012
4.15436e-012
4.14022e-012
5.96671e-012
2.91943e-012
2.69796e-012
1.12009e-012
3.58727e-012
5.86552e-012
6.2693e-012
4.01068e-012
4.59301e-012
2.2186e-011
2.96961e-010
6.48982e-009
7.44129e-008
1.28542e-006
1.2495e-005
0.000166283
0.00133983
0.0132404
0.0856657
0.582147
2.59989
10.3302
29.1173
68.3807
127.63
183.26
231.962
278.832
315.564
312.283
244.243
104.245
17.4294
2.69253
0.416589
0.0648669
0.0097249
0.00139982
0.000194031
2.54653e-005
3.28252e-006
3.95927e-007
4.80718e-008
5.38678e-009
6.22143e-010
6.49151e-011
6.99166e-012
4.06638e-012
1.79034e-013
3.986e-012
2.64844e-012
8.77244e-012
7.21697e-012
4.42501e-012
6.20461e-012
5.06452e-012
2.05596e-012
4.04327e-012
8.66487e-013
1.58726e-012
6.24614e-012
5.6488e-012
4.43138e-012
1.00993e-012
3.29438e-012
6.25718e-012
2.88113e-012
2.87586e-012
5.41717e-012
2.27524e-011
2.96966e-010
6.48953e-009
7.44124e-008
1.28542e-006
1.2495e-005
0.000166283
0.00133983
0.0132404
0.0856657
0.582147
2.59989
10.3302
29.1173
68.3807
127.63
183.26
231.962
278.832
315.564
312.283
244.243
104.245
17.4294
2.69253
0.416589
0.0648669
0.0097249
0.00139982
0.000194031
2.54653e-005
3.28252e-006
3.95927e-007
4.80734e-008
5.38745e-009
6.22644e-010
6.47214e-011
1.17623e-011
2.12269e-012
4.01135e-012
3.20931e-012
6.47689e-012
8.57103e-012
4.57709e-012
2.83462e-012
4.84439e-012
3.66946e-012
3.84189e-013
4.3778e-012
4.61422e-012
1.84052e-012
7.12166e-012
1.03426e-012
2.36023e-012
3.66146e-012
4.00063e-012
5.82838e-012
3.00011e-012
3.80742e-012
1.75421e-012
2.30122e-011
2.97228e-010
6.48973e-009
7.44127e-008
1.28542e-006
1.2495e-005
0.000166283
0.00133983
0.0132404
0.0856657
0.582147
2.59989
10.3302
29.1173
68.3807
127.63
183.26
231.962
278.832
315.564
312.283
244.243
104.245
17.4294
2.69253
0.416589
0.0648669
0.0097249
0.00139982
0.000194031
2.54653e-005
3.28252e-006
3.95927e-007
4.80715e-008
5.38695e-009
6.22241e-010
6.38861e-011
6.73948e-012
3.84708e-012
2.23731e-012
3.84685e-012
2.31449e-012
9.95003e-012
6.00855e-012
2.074e-012
4.51601e-012
5.43756e-012
2.13125e-012
7.14085e-012
5.20063e-013
3.18949e-012
3.62689e-012
4.74772e-012
2.05351e-012
4.20514e-012
3.51736e-012
5.80283e-012
1.83207e-012
3.52997e-012
6.704e-012
2.28353e-011
2.9719e-010
6.48934e-009
7.44123e-008
1.28542e-006
1.2495e-005
0.000166283
0.00133983
0.0132404
0.0856657
0.582147
2.59989
10.3302
29.1173
68.3807
127.63
183.26
231.962
278.832
315.564
312.283
244.243
104.245
17.4294
2.69253
0.416589
0.0648669
0.0097249
0.00139982
0.000194031
2.54653e-005
3.28252e-006
3.95927e-007
4.80729e-008
5.38742e-009
6.22536e-010
6.42908e-011
1.07448e-011
2.72782e-012
5.92773e-012
2.30909e-012
4.21453e-012
7.65727e-012
4.41031e-012
3.92438e-012
4.18182e-012
3.50362e-012
7.91909e-013
2.22234e-012
6.43319e-012
2.46121e-012
4.25336e-012
2.82755e-012
3.75899e-012
5.12972e-012
3.90415e-012
6.86355e-012
1.23799e-012
4.45854e-012
4.98886e-012
2.32151e-011
2.97362e-010
6.48965e-009
7.44125e-008
1.28542e-006
1.2495e-005
0.000166283
0.00133983
0.0132404
0.0856657
0.582147
2.59989
10.3302
29.1173
68.3807
127.63
183.26
231.962
278.832
315.564
312.283
244.243
104.245
17.4294
2.69253
0.416589
0.0648669
0.0097249
0.00139982
0.000194031
2.54653e-005
3.28252e-006
3.95927e-007
4.8071e-008
5.3873e-009
6.22461e-010
6.29339e-011
7.35403e-012
9.59255e-013
8.84782e-013
4.56086e-012
3.03388e-012
9.25581e-012
5.95256e-012
2.98565e-013
3.65632e-012
5.13235e-012
2.6337e-012
2.85687e-012
2.69727e-012
3.51528e-013
9.17512e-013
6.12145e-012
2.30561e-012
2.13059e-012
5.00533e-012
8.93548e-012
1.19857e-012
2.82538e-012
4.87127e-012
2.43035e-011
2.97403e-010
6.48941e-009
7.44121e-008
1.28542e-006
1.2495e-005
0.000166283
0.00133983
0.0132404
0.0856657
0.582147
2.59989
10.3302
29.1173
68.3807
127.63
183.26
231.962
278.832
315.564
312.283
244.243
104.245
17.4294
2.69253
0.416589
0.0648669
0.0097249
0.00139982
0.000194031
2.54653e-005
3.28252e-006
3.95927e-007
4.80725e-008
5.38777e-009
6.22912e-010
6.33547e-011
7.11116e-012
4.64758e-012
3.24246e-012
2.4208e-012
2.24952e-012
6.09184e-012
3.4384e-012
2.95547e-012
1.83281e-012
3.2e-012
1.44853e-012
2.56183e-012
2.08528e-012
5.76517e-012
1.0333e-012
4.30784e-012
4.52058e-012
6.31958e-012
4.21098e-012
5.65104e-012
1.29578e-012
4.85036e-012
4.34584e-012
2.41374e-011
2.97643e-010
6.48974e-009
7.44123e-008
1.28542e-006
1.2495e-005
0.000166283
0.00133983
0.0132404
0.0856657
0.582147
2.59989
10.3302
29.1173
68.3807
127.63
183.26
231.962
278.832
315.564
312.283
244.243
104.245
17.4294
2.69253
0.416589
0.0648669
0.0097249
0.00139982
0.000194031
2.54653e-005
3.28252e-006
3.95927e-007
4.80709e-008
5.38783e-009
6.22429e-010
6.21414e-011
7.25747e-012
4.48977e-013
9.76793e-013
2.41339e-012
1.85279e-012
9.55395e-012
3.61788e-012
1.80547e-012
3.72912e-012
2.92067e-012
1.40633e-012
1.45352e-012
3.05689e-012
2.47726e-012
1.67395e-012
2.28056e-012
2.06413e-012
1.367e-012
4.99677e-012
6.94305e-012
4.75526e-012
2.86275e-012
5.37283e-012
2.51547e-011
2.97614e-010
6.48965e-009
7.4412e-008
1.28542e-006
1.2495e-005
0.000166283
0.00133983
0.0132404
0.0856657
0.582147
2.59989
10.3302
29.1173
68.3807
127.63
183.26
231.962
278.832
315.564
312.283
244.243
104.245
17.4294
2.69253
0.416589
0.0648669
0.0097249
0.00139982
0.000194031
2.54653e-005
3.28252e-006
3.95927e-007
4.80724e-008
5.388e-009
6.23162e-010
6.29281e-011
6.52985e-012
3.0145e-012
8.38593e-013
2.53542e-012
1.65294e-012
3.7691e-012
3.49427e-012
1.72584e-012
1.80249e-012
3.66866e-012
4.86602e-012
1.93728e-012
1.78481e-012
5.61239e-012
6.15173e-013
2.73436e-012
2.67529e-012
4.83642e-012
4.4548e-012
4.75724e-012
2.01597e-012
2.27364e-012
7.9963e-012
2.44277e-011
2.97914e-010
6.49e-009
7.44122e-008
1.28542e-006
1.2495e-005
0.000166283
0.00133983
0.0132404
0.0856657
0.582147
2.59989
10.3302
29.1173
68.3807
127.63
183.26
231.962
278.832
315.564
312.283
244.243
104.245
17.4294
2.69253
0.416589
0.0648669
0.0097249
0.00139982
0.000194031
2.54653e-005
3.28252e-006
3.95927e-007
4.80713e-008
5.38834e-009
6.22545e-010
6.16882e-011
8.19241e-012
3.16109e-013
2.0892e-012
1.81319e-012
1.7521e-012
8.20753e-012
3.35831e-012
2.75779e-012
3.73367e-012
5.53668e-012
8.22944e-013
1.57809e-012
9.16525e-013
2.76034e-013
1.31146e-012
3.27572e-012
2.33498e-012
1.01374e-012
4.57729e-012
4.03759e-012
6.14013e-012
2.92405e-012
4.70002e-012
2.5482e-011
2.97915e-010
6.48994e-009
7.44119e-008
1.28542e-006
1.2495e-005
0.000166283
0.00133983
0.0132404
0.0856657
0.582147
2.59989
10.3302
29.1173
68.3807
127.63
183.26
231.962
278.832
315.564
312.283
244.243
104.245
17.4294
2.69253
0.416589
0.0648669
0.0097249
0.00139982
0.000194031
2.54653e-005
3.28252e-006
3.95927e-007
4.80726e-008
5.38813e-009
6.23244e-010
6.24195e-011
6.2272e-012
3.37189e-012
2.79327e-012
2.11566e-012
2.40528e-012
3.89636e-012
1.44287e-012
8.21578e-013
3.01587e-012
4.90168e-012
2.48331e-012
2.06591e-012
8.97843e-013
6.35115e-012
1.10734e-012
4.28226e-012
2.03216e-012
1.80875e-012
4.48888e-012
4.24816e-012
5.53455e-012
2.03482e-012
6.83838e-012
2.47233e-011
2.9821e-010
6.49019e-009
7.4412e-008
1.28542e-006
1.2495e-005
0.000166283
0.00133983
0.0132404
0.0856657
0.582147
2.59989
10.3302
29.1173
68.3807
127.63
183.26
231.962
278.832
315.564
312.283
244.243
104.245
17.4294
2.69253
0.416589
0.0648669
0.0097249
0.00139982
0.000194031
2.54653e-005
3.28252e-006
3.95927e-007
4.80715e-008
5.38854e-009
6.22591e-010
6.13443e-011
8.06706e-012
4.51232e-013
2.8412e-012
3.10002e-012
1.70245e-012
8.02755e-012
3.2552e-012
1.15609e-012
2.99004e-012
5.01547e-012
2.64298e-012
8.90264e-013
1.34652e-012
3.26053e-012
1.51063e-012
2.17563e-012
2.48349e-012
2.20477e-012
4.63655e-012
3.7485e-012
6.14647e-012
2.22378e-012
3.43057e-012
2.5774e-011
2.98078e-010
6.49023e-009
7.44119e-008
1.28542e-006
1.2495e-005
0.000166283
0.00133983
0.0132404
0.0856657
0.582147
2.59989
10.3302
29.1173
68.3807
127.63
183.26
231.962
278.832
315.564
312.283
244.243
104.245
17.4294
2.69253
0.416589
0.0648669
0.0097249
0.00139982
0.000194031
2.54653e-005
3.28252e-006
3.95928e-007
4.80725e-008
5.3883e-009
6.23286e-010
6.19833e-011
6.03355e-012
1.09675e-012
2.85444e-012
2.40837e-012
4.37848e-012
3.83712e-012
1.23774e-012
1.79148e-012
5.89163e-012
3.21711e-012
5.38152e-013
2.08355e-012
2.45271e-012
7.04207e-012
9.19751e-013
3.97624e-012
1.76803e-012
3.31437e-012
4.49701e-012
4.88705e-012
5.4692e-012
1.76624e-012
5.18251e-012
2.53686e-011
2.9844e-010
6.49043e-009
7.4412e-008
1.28542e-006
1.2495e-005
0.000166283
0.00133983
0.0132404
0.0856657
0.582147
2.59989
10.3302
29.1173
68.3807
127.63
183.26
231.962
278.832
315.564
312.283
244.243
104.245
17.4294
2.69253
0.416589
0.0648669
0.0097249
0.00139982
0.000194031
2.54653e-005
3.28252e-006
3.95928e-007
4.80717e-008
5.38864e-009
6.22694e-010
6.12331e-011
7.0294e-012
1.05334e-012
1.66001e-012
2.15311e-012
1.6752e-012
6.59235e-012
3.15831e-012
6.19851e-013
3.73393e-012
4.12594e-012
3.78709e-012
1.94688e-012
8.95415e-013
1.78621e-012
2.82634e-012
2.56728e-012
1.92539e-012
1.3349e-012
4.71445e-012
3.53412e-012
6.6658e-012
1.93457e-012
1.62332e-012
2.60642e-011
2.98229e-010
6.49054e-009
7.44119e-008
1.28542e-006
1.2495e-005
0.000166283
0.00133983
0.0132404
0.0856657
0.582147
2.59989
10.3302
29.1173
68.3807
127.63
183.26
231.962
278.832
315.564
312.283
244.243
104.245
17.4294
2.69253
0.416589
0.0648669
0.0097249
0.00139982
0.000194031
2.54653e-005
3.28252e-006
3.95927e-007
4.80723e-008
5.38862e-009
6.23073e-010
6.16143e-011
6.16399e-012
2.86621e-012
1.08472e-012
2.70633e-012
3.8874e-012
3.89661e-012
2.72607e-012
1.69461e-012
2.41759e-012
3.27568e-012
1.43764e-012
1.97636e-012
2.07933e-012
5.60321e-012
4.63326e-012
3.50956e-012
2.5625e-012
3.79562e-012
5.27609e-012
3.07231e-012
2.4118e-012
3.14576e-012
3.92948e-012
2.52751e-011
2.98619e-010
6.4907e-009
7.4412e-008
1.28542e-006
1.2495e-005
0.000166283
0.00133983
0.0132404
0.0856657
0.582147
2.59989
10.3302
29.1173
68.3807
127.63
183.26
231.962
278.832
315.564
312.283
244.243
104.245
17.4294
2.69253
0.416589
0.0648669
0.0097249
0.00139982
0.000194031
2.54653e-005
3.28252e-006
3.95928e-007
4.80717e-008
5.38877e-009
6.2257e-010
6.11676e-011
6.55293e-012
2.53385e-012
1.47676e-012
2.58409e-012
1.46847e-012
5.75271e-012
2.91768e-012
1.31533e-012
2.5389e-012
4.12344e-012
1.83052e-012
1.03385e-012
1.78678e-012
2.71129e-012
5.34059e-012
9.26649e-013
2.88345e-012
2.56464e-012
5.01138e-012
2.2929e-012
4.89192e-012
1.70114e-012
2.86142e-012
2.55731e-011
2.9835e-010
6.49081e-009
7.4412e-008
1.28542e-006
1.2495e-005
0.000166283
0.00133983
0.0132404
0.0856657
0.582147
2.59989
10.3302
29.1173
68.3807
127.63
183.26
231.962
278.832
315.564
312.283
244.243
104.245
17.4294
2.69253
0.416589
0.0648669
0.0097249
0.00139982
0.000194031
2.54653e-005
3.28252e-006
3.95927e-007
4.80721e-008
5.38884e-009
6.22836e-010
6.13995e-011
6.18462e-012
2.16195e-012
1.60384e-012
2.86092e-012
5.08082e-012
4.23365e-012
4.19944e-012
2.72355e-012
7.7194e-013
3.62098e-012
9.29236e-013
2.84379e-012
8.93575e-013
4.46555e-012
5.33765e-012
2.93585e-012
3.9341e-012
5.18766e-012
4.90667e-012
2.25173e-012
3.32149e-012
1.8131e-012
3.72261e-012
2.50408e-011
2.98734e-010
6.49092e-009
7.44121e-008
1.28542e-006
1.2495e-005
0.000166283
0.00133983
0.0132404
0.0856657
0.582147
2.59989
10.3302
29.1173
68.3807
127.63
183.26
231.962
278.832
315.564
312.283
244.243
104.245
17.4294
2.69253
0.416589
0.0648669
0.0097249
0.00139982
0.000194031
2.54653e-005
3.28252e-006
3.95928e-007
4.80718e-008
5.38879e-009
6.22492e-010
6.10823e-011
6.44147e-012
2.48678e-012
1.59093e-012
3.29646e-012
8.05437e-013
4.51938e-012
2.95258e-012
3.72734e-012
3.30545e-012
4.85575e-012
6.77365e-013
1.79279e-012
2.60311e-012
5.76032e-013
6.52582e-012
2.03461e-012
3.78172e-012
1.90342e-012
4.49716e-012
3.74889e-012
6.65808e-012
4.25565e-012
3.26169e-012
2.45523e-011
2.98454e-010
6.49106e-009
7.44121e-008
1.28542e-006
1.2495e-005
0.000166283
0.00133983
0.0132404
0.0856657
0.582147
2.59989
10.3302
29.1173
68.3807
127.63
183.26
231.962
278.832
315.564
312.283
244.243
104.245
17.4294
2.69253
0.416589
0.0648669
0.0097249
0.00139982
0.000194031
2.54653e-005
3.28252e-006
3.95927e-007
4.80721e-008
5.3889e-009
6.22684e-010
6.12944e-011
6.08196e-012
2.04112e-012
1.33616e-012
3.76608e-012
4.42269e-012
5.75082e-012
2.57384e-012
2.16933e-012
1.32235e-012
3.00078e-012
1.02534e-012
2.76405e-012
1.59079e-012
1.32208e-012
4.26366e-012
4.66285e-012
4.4303e-012
4.77993e-012
5.16883e-012
3.45567e-012
3.97278e-012
2.49788e-012
3.31895e-012
2.45759e-011
2.98792e-010
6.49118e-009
7.44121e-008
1.28542e-006
1.2495e-005
0.000166283
0.00133983
0.0132404
0.0856657
0.582147
2.59989
10.3302
29.1173
68.3807
127.63
183.26
231.962
278.832
315.564
312.283
244.243
104.245
17.4294
2.69253
0.416589
0.0648669
0.0097249
0.00139982
0.000194031
2.54653e-005
3.28252e-006
3.95927e-007
4.80719e-008
5.38882e-009
6.22526e-010
6.10609e-011
6.484e-012
1.42578e-012
2.21876e-012
3.18789e-012
1.00483e-012
3.9894e-012
3.07781e-012
3.01847e-012
3.24786e-012
4.00641e-012
1.73319e-012
2.7542e-012
2.81573e-012
6.58613e-013
5.36705e-012
1.44997e-012
4.30776e-012
3.44403e-012
4.75717e-012
4.15581e-012
5.22376e-012
2.23387e-012
2.27383e-012
2.42331e-011
2.98542e-010
6.49133e-009
7.44122e-008
1.28542e-006
1.2495e-005
0.000166283
0.00133983
0.0132404
0.0856657
0.582147
2.59989
10.3302
29.1173
68.3807
127.63
183.26
231.962
278.832
315.564
312.283
244.243
104.245
17.4294
2.69253
0.416589
0.0648669
0.0097249
0.00139982
0.000194031
2.54653e-005
3.28252e-006
3.95927e-007
4.80721e-008
5.38882e-009
6.22745e-010
6.1294e-011
5.98126e-012
1.46753e-012
1.91648e-012
3.20646e-012
1.96668e-012
4.31492e-012
2.52163e-012
1.88141e-012
1.70684e-012
3.4709e-012
7.6925e-013
2.95312e-012
1.32589e-012
9.35775e-013
2.05224e-012
3.43338e-012
4.29927e-012
4.68988e-012
6.0189e-012
4.67243e-012
3.83756e-012
1.20005e-012
2.58505e-012
2.40602e-011
2.98815e-010
6.49146e-009
7.44122e-008
1.28542e-006
1.2495e-005
0.000166283
0.00133983
0.0132404
0.0856657
0.582147
2.59989
10.3302
29.1173
68.3807
127.63
183.26
231.962
278.832
315.564
312.283
244.243
104.245
17.4294
2.69253
0.416589
0.0648669
0.0097249
0.00139982
0.000194031
2.54653e-005
3.28252e-006
3.95928e-007
4.80719e-008
5.38875e-009
6.22867e-010
6.11628e-011
6.40699e-012
2.45408e-012
2.59253e-012
3.40749e-012
8.60034e-013
4.50717e-012
2.43724e-012
2.27572e-012
2.40591e-012
4.87298e-012
2.56171e-012
4.28038e-012
1.65053e-012
8.73232e-013
4.20308e-012
9.61737e-013
3.04535e-012
3.20479e-012
5.13124e-012
4.2619e-012
3.25196e-012
1.27261e-012
3.69134e-012
2.38393e-011
2.98603e-010
6.49162e-009
7.44121e-008
1.28542e-006
1.2495e-005
0.000166283
0.00133983
0.0132404
0.0856657
0.582147
2.59989
10.3302
29.1173
68.3807
127.63
183.26
231.962
278.832
315.564
312.283
244.243
104.245
17.4294
2.69253
0.416589
0.0648669
0.0097249
0.00139982
0.000194031
2.54653e-005
3.28252e-006
3.95928e-007
4.80719e-008
5.38887e-009
6.22995e-010
6.10844e-011
5.87642e-012
2.37406e-012
2.15508e-012
4.91006e-012
1.51923e-012
5.13725e-012
2.09224e-012
3.23955e-012
1.78777e-012
3.65703e-012
3.96808e-013
3.54703e-012
4.40526e-013
8.22606e-013
3.79975e-012
1.80163e-012
2.30757e-012
5.53778e-012
5.70811e-012
6.35317e-012
1.98495e-012
1.58812e-012
3.75573e-012
2.40669e-011
2.98827e-010
6.49166e-009
7.44122e-008
1.28542e-006
1.2495e-005
0.000166283
0.00133983
0.0132404
0.0856657
0.582147
2.59989
10.3302
29.1173
68.3807
127.63
183.26
231.962
278.832
315.564
312.283
244.243
104.245
17.4294
2.69253
0.416589
0.0648669
0.0097249
0.00139982
0.000194031
2.54653e-005
3.28252e-006
3.95928e-007
4.80718e-008
5.38874e-009
6.23305e-010
6.11659e-011
5.81876e-012
3.31649e-012
2.55149e-012
4.61158e-012
1.24828e-012
4.26428e-012
1.94636e-012
2.56884e-012
2.40702e-012
4.17592e-012
2.92737e-012
2.86041e-012
2.67918e-012
7.73932e-013
4.92951e-012
1.91934e-012
4.18511e-012
4.27919e-012
4.79084e-012
6.0115e-012
2.13843e-012
1.17632e-012
4.67965e-012
2.37143e-011
2.98742e-010
6.4918e-009
7.44121e-008
1.28542e-006
1.2495e-005
0.000166283
0.00133983
0.0132404
0.0856657
0.582147
2.59989
10.3302
29.1173
68.3807
127.63
183.26
231.962
278.832
315.564
312.283
244.243
104.245
17.4294
2.69253
0.416589
0.0648669
0.0097249
0.00139982
0.000194031
2.54653e-005
3.28252e-006
3.95928e-007
4.80718e-008
5.38884e-009
6.2336e-010
6.11065e-011
5.95253e-012
1.29049e-012
1.71916e-012
4.10055e-012
1.22728e-012
6.12363e-012
2.14104e-012
3.16051e-012
1.7634e-012
3.6933e-012
2.2751e-012
2.32533e-012
4.89953e-013
1.22005e-012
4.1125e-012
1.30729e-012
2.4571e-012
4.35066e-012
5.3271e-012
4.81579e-012
2.42289e-012
1.45776e-012
3.04577e-012
2.38626e-011
2.98876e-010
6.49174e-009
7.44122e-008
1.28542e-006
1.2495e-005
0.000166283
0.00133983
0.0132404
0.0856657
0.582147
2.59989
10.3302
29.1173
68.3807
127.63
183.26
231.962
278.832
315.564
312.283
244.243
104.245
17.4294
2.69253
0.416589
0.0648669
0.0097249
0.00139982
0.000194031
2.54653e-005
3.28252e-006
3.95928e-007
4.80717e-008
5.38871e-009
6.23675e-010
6.13823e-011
5.68777e-012
2.1087e-012
2.42779e-012
4.49918e-012
1.67271e-012
4.31193e-012
1.45405e-012
2.31546e-012
2.28172e-012
4.0037e-012
1.07986e-012
2.89012e-012
1.37691e-012
8.32081e-013
4.42301e-012
1.05028e-012
4.26391e-012
2.98687e-012
4.91326e-012
4.07225e-012
2.0991e-012
1.29775e-012
3.64144e-012
2.37778e-011
2.98817e-010
6.49189e-009
7.44121e-008
1.28542e-006
1.2495e-005
0.000166283
0.00133983
0.0132404
0.0856657
0.582147
2.59989
10.3302
29.1173
68.3807
127.63
183.26
231.962
278.832
315.564
312.283
244.243
104.245
17.4294
2.69253
0.416589
0.0648669
0.0097249
0.00139982
0.000194031
2.54653e-005
3.28252e-006
3.95928e-007
4.80718e-008
5.3889e-009
6.2378e-010
6.11434e-011
5.74579e-012
1.31777e-012
2.08075e-012
3.02693e-012
1.4756e-012
5.11537e-012
1.30288e-012
3.28152e-012
1.6671e-012
4.29026e-012
2.54006e-012
3.34171e-012
8.91895e-013
1.31147e-012
4.27772e-012
1.62121e-012
3.53233e-012
1.86245e-012
4.70675e-012
4.01563e-012
2.8269e-012
1.5665e-012
3.21855e-012
2.41546e-011
2.98876e-010
6.49179e-009
7.44123e-008
1.28542e-006
1.2495e-005
0.000166283
0.00133983
0.0132404
0.0856657
0.582147
2.59989
10.3302
29.1173
68.3807
127.63
183.26
231.962
278.832
315.564
312.283
244.243
104.245
17.4294
2.69253
0.416589
0.0648669
0.0097249
0.00139982
0.000194031
2.54653e-005
3.28252e-006
3.95928e-007
4.80718e-008
5.38873e-009
6.24089e-010
6.13507e-011
5.48846e-012
1.85287e-012
2.32042e-012
3.42642e-012
1.90842e-012
3.36198e-012
1.3884e-012
3.04604e-012
2.0815e-012
4.1166e-012
2.53604e-012
2.16413e-012
2.45319e-012
1.48572e-012
3.70071e-012
1.34822e-012
4.17514e-012
2.72991e-012
4.57515e-012
3.3591e-012
2.36985e-012
1.59824e-012
2.96959e-012
2.38652e-011
2.9886e-010
6.49193e-009
7.44122e-008
1.28542e-006
1.2495e-005
0.000166283
0.00133983
0.0132404
0.0856657
0.582147
2.59989
10.3302
29.1173
68.3807
127.63
183.26
231.962
278.832
315.564
312.283
244.243
104.245
17.4294
2.69253
0.416589
0.0648669
0.0097249
0.00139982
0.000194031
2.54653e-005
3.28252e-006
3.95928e-007
4.80719e-008
5.38895e-009
6.24168e-010
6.09637e-011
5.49143e-012
1.75064e-012
2.50305e-012
2.98962e-012
2.39036e-012
4.14864e-012
3.47246e-012
4.60393e-012
1.60678e-012
4.18936e-012
4.37417e-012
3.20695e-012
7.96005e-013
1.78554e-012
3.6019e-012
9.23128e-013
4.06873e-012
2.51843e-012
4.65095e-012
3.4478e-012
2.63842e-012
1.77511e-012
3.7667e-012
2.39318e-011
2.98888e-010
6.49184e-009
7.44123e-008
1.28542e-006
1.2495e-005
0.000166283
0.00133983
0.0132404
0.0856657
0.582147
2.59989
10.3302
29.1173
68.3807
127.63
183.26
231.962
278.832
315.564
312.283
244.243
104.245
17.4294
2.69253
0.416589
0.0648669
0.0097249
0.00139982
0.000194031
2.54653e-005
3.28252e-006
3.95928e-007
4.80719e-008
5.38872e-009
6.24332e-010
6.12031e-011
5.49508e-012
1.69454e-012
2.35882e-012
3.55096e-012
2.53749e-012
3.6158e-012
1.37626e-012
3.56782e-012
1.81118e-012
4.77094e-012
4.15658e-012
1.66589e-012
1.22845e-012
1.38282e-012
1.68814e-012
9.62104e-013
3.30923e-012
2.94951e-012
4.60263e-012
2.05553e-012
2.5331e-012
2.20213e-012
2.89599e-012
2.37211e-011
2.98893e-010
6.49197e-009
7.44122e-008
1.28542e-006
1.2495e-005
0.000166283
0.00133983
0.0132404
0.0856657
0.582147
2.59989
10.3302
29.1173
68.3807
127.63
183.26
231.962
278.832
315.564
312.283
244.243
104.245
17.4294
2.69253
0.416589
0.0648669
0.0097249
0.00139982
0.000194031
2.54653e-005
3.28252e-006
3.95928e-007
4.80719e-008
5.38896e-009
6.24481e-010
6.09322e-011
5.39056e-012
3.0686e-012
2.54389e-012
3.26624e-012
3.14112e-012
3.67914e-012
2.09518e-012
4.94738e-012
1.97962e-012
4.52715e-012
5.43671e-012
2.91034e-012
1.20207e-012
1.10244e-012
2.88263e-012
9.12175e-013
3.93737e-012
2.31095e-012
4.68266e-012
2.08052e-012
3.06135e-012
1.77138e-012
3.92862e-012
2.39494e-011
2.98908e-010
6.4919e-009
7.44124e-008
1.28542e-006
1.2495e-005
0.000166283
0.00133983
0.0132404
0.0856657
0.582147
2.59989
10.3302
29.1173
68.3807
127.63
183.26
231.962
278.832
315.564
312.283
244.243
104.245
17.4294
2.69253
0.416589
0.0648669
0.0097249
0.00139982
0.000194031
2.54653e-005
3.28252e-006
3.95928e-007
4.80719e-008
5.38878e-009
6.24574e-010
6.10427e-011
5.74908e-012
1.95945e-012
2.9017e-012
3.14058e-012
2.30243e-012
3.27044e-012
4.48894e-013
3.29349e-012
2.80921e-012
5.98054e-012
5.52802e-012
2.00927e-012
1.90049e-012
9.5283e-013
2.40466e-012
9.26671e-013
3.1973e-012
3.08477e-012
4.61388e-012
9.01894e-013
2.43891e-012
1.22342e-012
3.11055e-012
2.367e-011
2.9897e-010
6.49201e-009
7.44122e-008
1.28542e-006
1.2495e-005
0.000166283
0.00133983
0.0132404
0.0856657
0.582147
2.59989
10.3302
29.1173
68.3807
127.63
183.26
231.962
278.832
315.564
312.283
244.243
104.245
17.4294
2.69253
0.416589
0.0648669
0.0097249
0.00139982
0.000194031
2.54653e-005
3.28252e-006
3.95928e-007
4.80719e-008
5.38903e-009
6.24652e-010
6.09424e-011
5.38039e-012
3.10305e-012
2.54186e-012
3.11524e-012
2.55261e-012
4.62904e-012
6.12019e-013
4.83289e-012
2.00675e-012
5.05664e-012
7.11532e-012
3.8907e-012
8.04768e-013
1.69147e-012
4.38438e-012
1.30463e-012
3.90018e-012
3.51089e-012
4.61088e-012
1.36226e-012
2.1577e-012
1.26545e-012
4.79221e-012
2.38064e-011
2.98947e-010
6.49194e-009
7.44124e-008
1.28542e-006
1.2495e-005
0.000166283
0.00133983
0.0132404
0.0856657
0.582147
2.59989
10.3302
29.1173
68.3807
127.63
183.26
231.962
278.832
315.564
312.283
244.243
104.245
17.4294
2.69253
0.416589
0.0648669
0.0097249
0.00139982
0.000194031