/*--------------------------------*- C++ -*----------------------------------*\
| =========                 |                                                 |
| \\      /  F ield         | OpenFOAM: The Open Source CFD Toolbox           |
|  \\    /   O peration     | Version:  5.x                                   |
|   \\  /    A nd           | Web:      www.OpenFOAM.org                      |
|    \\/     M anipulation  |                                                 |
\*---------------------------------------------------------------------------*/
/*   Windows 32 and 64 bit porting by blueCAPE: http://www.bluecape.com.pt   *\
|  Based on Windows porting (2.0.x v4) by Symscape: http://www.symscape.com   |
\*---------------------------------------------------------------------------*/
FoamFile
{
    version     2.0;
    format      ascii;
    class       surfaceScalarField;
    location    "0.001";
    object      phi;
}
// * * * * * * * * * * * * * * * * * * * * * * * * * * * * * * * * * * * * * //

dimensions      [1 0 -1 0 0 0 0];

internalField   nonuniform List<scalar> 
19740
(
-1.10086e-014
-9.32143e-013
-5.00728e-015
8.93952e-013
3.26041e-015
-5.49338e-013
3.38358e-014
1.75415e-012
2.36929e-014
-1.38556e-013
-3.72766e-014
-5.78648e-013
-5.56499e-014
-4.05009e-013
-3.07723e-014
-1.65645e-013
3.37187e-014
2.52687e-013
2.94912e-014
3.73479e-013
2.03742e-013
7.76712e-013
2.95611e-012
2.1938e-013
6.28847e-011
4.16556e-013
7.56715e-010
-5.44009e-013
1.27038e-008
-4.08118e-013
1.29945e-007
2.26485e-013
1.68513e-006
3.89022e-013
1.43305e-005
3.29958e-013
0.000138881
-4.60076e-013
0.00095221
3.86802e-013
0.00651177
2.05613e-013
0.0338314
-3.51053e-013
0.141646
-1.7919e-013
0.433623
-3.62377e-013
0.973846
-4.64295e-013
1.71652
1.90514e-013
2.31179
4.16112e-013
2.48476
-3.34965e-012
2.34543
-9.67115e-013
2.21795
7.91589e-014
2.10468
-4.47586e-013
1.84768
-1.42059e-012
1.02942
-1.63536e-012
0.145806
-3.40561e-014
0.0228652
-6.66134e-015
0.00359708
2.84495e-014
0.000561314
-9.90874e-015
8.69112e-005
-4.19942e-014
1.29334e-005
4.21607e-014
1.84727e-006
1.3281e-014
2.53535e-007
2.13024e-014
3.311e-008
2.11775e-014
4.22073e-009
2.63123e-014
5.08304e-010
-2.07473e-014
6.09538e-011
-1.0672e-014
6.84306e-012
6.60583e-015
7.80661e-013
-6.53644e-015
8.19431e-014
-2.13857e-014
2.02225e-015
-2.32175e-014
-7.42765e-015
-2.34951e-014
4.3238e-015
-6.38378e-015
-1.67227e-015
1.92346e-014
-1.95156e-016
-3.11973e-014
1.74171e-014
-9.71445e-015
1.34827e-014
1.25178e-014
-5.42665e-015
-2.00256e-014
-1.68685e-014
-1.84158e-014
-2.35922e-016
1.73056e-014
4.42008e-015
1.08663e-014
9.52016e-015
-6.93369e-015
-1.1724e-012
-7.63018e-015
1.61604e-012
-6.8695e-016
6.79456e-014
3.07055e-014
2.97762e-012
2.53634e-014
5.51559e-013
-3.39459e-014
-6.33715e-013
-5.17841e-014
-6.63913e-013
-2.8289e-014
-1.34337e-012
3.38323e-014
-4.48086e-013
2.79559e-014
2.22489e-013
1.94895e-013
6.40821e-013
2.85781e-012
2.00728e-013
6.0851e-011
6.82121e-013
7.32264e-010
-1.59872e-014
1.22933e-008
-5.55112e-014
1.25746e-007
4.92939e-014
1.63068e-006
6.84786e-013
1.38675e-005
5.8753e-013
0.000134393
-4.86278e-013
0.000921442
-5.24025e-014
0.00630136
-5.37348e-013
0.0327383
-4.69624e-013
0.137069
-1.11688e-013
0.419612
5.39568e-014
0.942379
-4.1589e-013
1.66106
-1.8896e-013
2.23709
2.45359e-013
2.40447
-6.11189e-012
2.26964
-2.43883e-012
2.14629
-4.79838e-013
2.03667
-7.5151e-013
1.78798
-1.4127e-012
0.996154
-1.2777e-012
0.141095
1.03334e-013
0.0221264
3.29459e-014
0.00348085
1.10467e-014
0.000543177
7.02216e-015
8.41029e-005
-3.59157e-014
1.25155e-005
7.86871e-014
1.78758e-006
5.64826e-015
2.45343e-007
-1.40166e-015
3.20401e-008
3.36953e-014
4.08434e-009
5.15282e-014
4.9188e-010
-8.67362e-015
5.89853e-011
2.95736e-014
6.62163e-012
3.52496e-015
7.55257e-013
1.38778e-015
7.99957e-014
-6.92085e-014
3.20902e-015
-1.2032e-014
-7.39469e-015
-1.9762e-014
2.9538e-015
2.02616e-015
-3.165e-015
4.05093e-014
2.21611e-016
3.03924e-015
1.66672e-014
8.27116e-015
1.08737e-014
-2.16493e-015
-4.54844e-015
-1.98452e-015
-1.46445e-014
-3.51941e-014
-4.20237e-016
5.31658e-014
3.92958e-015
2.40502e-014
7.79932e-015
-8.65107e-015
-7.43405e-013
-8.99454e-016
2.71649e-012
8.12891e-015
8.71747e-013
2.98876e-014
1.76881e-012
1.58476e-014
-2.83329e-013
-3.68898e-014
-5.75984e-013
-4.81793e-014
-8.34444e-013
-2.85197e-014
-3.38751e-012
3.27299e-014
-2.54463e-013
2.93411e-014
-5.31131e-013
1.91764e-013
9.23706e-013
2.76791e-012
-7.59393e-014
5.8884e-011
1.73195e-014
7.08602e-010
1.23901e-013
1.18961e-008
4.57412e-013
1.21683e-007
-9.76996e-015
1.57799e-006
6.33271e-013
1.34194e-005
8.35776e-013
0.000130051
-3.12639e-013
0.000891668
1.89626e-013
0.00609775
-4.52527e-013
0.0316804
-8.08242e-013
0.13264
-1.22347e-013
0.406054
2.84661e-013
0.911929
-1.5099e-014
1.60739
-9.28146e-014
2.1648
-6.37268e-014
2.32678
-6.96998e-012
2.1963
-3.64553e-012
2.07694
-1.00153e-012
1.97086
-5.29465e-013
1.7302
-1.00808e-013
0.963966
7.38187e-013
0.136536
3.29042e-013
0.0214114
6.18394e-014
0.00336837
2.39808e-014
0.000525626
1.39055e-014
8.13854e-005
-4.66294e-015
1.21111e-005
5.09592e-014
1.72982e-006
9.25648e-015
2.37415e-007
-2.47441e-014
3.10049e-008
7.7674e-014
3.95237e-009
3.93158e-014
4.75985e-010
1.06165e-014
5.70777e-011
4.18832e-014
6.40784e-012
4.94188e-014
7.30742e-013
-2.52576e-015
7.55108e-014
-4.60881e-014
8.99671e-016
-6.93889e-016
-5.67992e-015
2.08999e-014
5.70767e-015
-5.07927e-015
-1.31058e-015
2.12885e-014
-3.04444e-016
4.04538e-014
1.73594e-014
2.15938e-014
1.2951e-014
1.95677e-015
-5.27963e-015
-2.97401e-014
-1.5129e-014
-1.05888e-014
7.05165e-016
5.34295e-014
4.84508e-015
2.28567e-014
-2.09555e-014
-2.48412e-015
-3.25517e-013
-7.06726e-015
1.53033e-012
-1.75294e-015
2.05835e-012
2.65907e-014
1.21014e-012
1.96084e-014
-1.95843e-013
-3.4881e-014
-1.80833e-012
-4.95229e-014
-4.31655e-013
-2.39435e-014
-2.80975e-012
3.70398e-014
6.85674e-013
2.73835e-014
-1.09157e-012
1.81633e-013
1.2097e-012
2.67541e-012
-7.90479e-014
5.69814e-011
-8.57092e-014
6.85706e-010
6.72351e-013
1.15117e-008
8.21565e-013
1.17751e-007
-6.82121e-013
1.527e-006
4.25437e-013
1.29858e-005
1.29585e-012
0.000125849
2.66898e-013
0.000862857
1.1946e-013
0.00590072
-9.3614e-013
0.0306568
-5.20473e-013
0.128354
-2.22489e-013
0.392933
5.45342e-013
0.882462
2.78444e-013
1.55545
5.63105e-013
2.09485
-1.9984e-013
2.2516
-5.04641e-012
2.12534
-3.1698e-012
2.00983
-1.85518e-013
1.90718
5.75651e-013
1.6743
1.7496e-012
0.932818
2.56944e-012
0.132124
6.38045e-013
0.0207196
7.36078e-014
0.00325953
1.37668e-014
0.000508641
-3.33067e-016
7.87556e-005
-3.85803e-014
1.17198e-005
3.6332e-014
1.67392e-006
-3.44447e-014
2.29744e-007
4.996e-016
3.0003e-008
6.32133e-014
3.82466e-009
2.02338e-014
4.60607e-010
5.35266e-014
5.5235e-011
5.7912e-014
6.19964e-012
4.81559e-014
7.06452e-013
5.02376e-015
7.61485e-014
-1.01308e-014
4.56709e-015
-1.28925e-014
-6.38508e-015
8.34055e-015
2.4091e-015
1.04777e-014
-3.76131e-015
1.52656e-016
-4.61003e-016
6.4615e-014
1.48566e-014
2.17049e-014
8.43076e-015
-2.14967e-014
-3.48332e-015
-2.33702e-014
-1.08719e-014
-8.88178e-015
-9.54098e-016
5.37903e-014
9.50195e-016
3.04756e-014
7.63278e-015
-4.93182e-015
6.10623e-013
5.00468e-016
2.22578e-012
5.43923e-015
3.57847e-012
2.58413e-014
2.78444e-013
1.31076e-014
1.35891e-013
-3.78482e-014
-1.26699e-012
-4.62521e-014
4.78728e-013
-2.3679e-014
-3.12905e-012
3.39034e-014
8.31335e-013
2.91702e-014
-8.83293e-013
1.79681e-013
2.24976e-012
2.59142e-012
-2.25153e-013
5.51418e-011
-2.50466e-013
6.6355e-010
1.18039e-012
1.11398e-008
1.18483e-012
1.13946e-007
-8.53539e-013
1.47766e-006
2.46025e-013
1.25662e-005
2.12497e-012
0.000121782
3.6593e-013
0.000834976
5.72875e-014
0.00571005
-1.06359e-012
0.0296662
-5.00044e-013
0.124207
-2.66454e-015
0.380237
4.24993e-013
0.853948
4.19886e-013
1.50519
1.28364e-012
2.02716
2.33813e-013
2.17884
-1.19871e-012
2.05666
-6.83675e-013
1.94488
1.63947e-012
1.84556
2.26119e-012
1.6202
3.18301e-012
0.902677
3.20621e-012
0.127855
6.49897e-013
0.0200501
8.21287e-014
0.00315421
5.3374e-014
0.000492206
-4.03011e-014
7.62109e-005
-5.10703e-015
1.13411e-005
5.81757e-014
1.61984e-006
-6.89448e-014
2.22321e-007
-3.94129e-015
2.90336e-008
3.63876e-014
3.70108e-009
5.2458e-015
4.45722e-010
2.00812e-014
5.34484e-011
5.74679e-014
5.9992e-012
4.58383e-014
6.83718e-013
-2.19824e-014
7.08203e-014
2.59098e-014
3.79688e-016
2.65066e-015
-5.52076e-015
3.4639e-014
6.54208e-015
3.36675e-014
3.98119e-016
6.77236e-015
-8.18789e-016
1.37113e-014
1.49234e-014
6.12843e-014
1.24406e-014
1.62648e-014
-3.81596e-015
-9.70057e-015
-1.31973e-014
-4.9627e-014
1.32273e-016
5.77871e-014
3.76348e-015
8.25728e-015
-1.34615e-014
-7.71952e-017
4.52527e-013
-5.46438e-015
1.0334e-012
-3.76001e-015
3.75433e-012
2.08132e-014
8.74856e-013
1.52925e-014
-1.42109e-014
-3.31107e-014
-2.08367e-012
-4.52798e-014
2.51354e-013
-1.95642e-014
-3.75655e-012
3.68351e-014
5.73763e-013
2.69611e-014
-1.10667e-012
1.68775e-013
1.04938e-012
2.5052e-012
-8.39329e-013
5.33613e-011
-8.2867e-013
6.42106e-010
3.39728e-013
1.07798e-008
1.28164e-012
1.10265e-007
-2.8999e-013
1.42992e-006
-2.05169e-013
1.21602e-005
2.16449e-012
0.000117847
8.17568e-013
0.000807996
6.03961e-014
0.00552555
-1.11244e-012
0.0287076
-5.77316e-014
0.120193
-2.28706e-013
0.36795
1.9984e-013
0.826355
-6.52811e-014
1.45655
1.52411e-012
1.96166
8.90843e-013
2.10844
2.54008e-012
1.99021
2.3741e-012
1.88204
3.82339e-012
1.78592
3.69504e-012
1.56784
3.53462e-012
0.87351
2.46675e-012
0.123724
4.45005e-013
0.0194022
7.85205e-014
0.00305229
1.79579e-014
0.000476302
-7.49123e-014
7.37483e-005
3.23075e-014
1.09746e-005
6.6086e-014
1.5675e-006
-7.08322e-014
2.15137e-007
-2.8505e-014
2.80954e-008
-1.57652e-014
3.58149e-009
3.81639e-014
4.31322e-010
-2.14134e-014
5.17231e-011
4.06897e-014
5.80483e-012
4.75453e-014
6.61205e-013
-3.69427e-014
7.12692e-014
3.66651e-014
5.27985e-015
6.43929e-015
-5.27117e-015
-3.4972e-015
1.95005e-015
6.52256e-014
-3.31701e-015
1.09496e-014
-9.81203e-016
-1.69309e-015
1.22723e-014
9.26065e-014
6.91417e-015
1.05055e-014
-2.23649e-015
3.94129e-015
-8.2716e-015
-6.26721e-014
-7.66748e-016
6.52672e-014
-1.76074e-016
-2.63678e-016
-3.22936e-014
-1.44589e-015
1.30296e-012
1.13798e-015
1.91847e-013
1.04083e-016
4.49774e-012
2.18272e-014
1.5774e-012
1.3608e-014
-5.8753e-013
-3.83331e-014
-2.75024e-012
-4.56675e-014
2.01172e-013
-2.04602e-014
-2.7387e-012
3.58116e-014
7.66498e-013
2.94244e-014
-1.39888e-013
1.65739e-013
1.36335e-013
2.42565e-012
-1.40776e-012
5.16392e-011
-7.98916e-013
6.21362e-010
2.40252e-013
1.04315e-008
1.34204e-012
1.06702e-007
-2.00284e-013
1.38371e-006
-6.18616e-013
1.17672e-005
2.16138e-012
0.000114039
1.02496e-012
0.000781888
-1.37668e-014
0.00534701
-9.36584e-013
0.02778
-3.84137e-013
0.11631
-2.02505e-013
0.356061
-1.54543e-013
0.799654
-3.0087e-013
1.40949
2.15472e-012
1.89828
1.44729e-012
2.04031
5.37126e-012
1.9259
5.08171e-012
1.82123
5.63338e-012
1.72821
4.78584e-012
1.51718
3.27682e-012
0.845285
7.2703e-013
0.119726
2.43833e-013
0.0187753
6.15896e-014
0.00295367
2.29261e-014
0.000460912
-3.60267e-014
7.13654e-005
3.78308e-014
1.062e-005
6.12566e-014
1.51685e-006
-6.05072e-014
2.08185e-007
-1.98175e-014
2.71876e-008
-2.27596e-014
3.46576e-009
4.724e-014
4.17383e-010
-3.13638e-014
5.00498e-011
1.01863e-014
5.61661e-012
3.77198e-014
6.40779e-013
-1.59733e-014
6.69562e-014
4.43118e-014
1.14058e-016
-4.57412e-014
-5.74714e-015
-3.0545e-014
5.58581e-015
1.10245e-013
1.07336e-015
-9.03444e-015
8.49364e-016
-1.50713e-014
1.33457e-014
9.79911e-014
1.0007e-014
1.88322e-014
-3.97902e-015
-1.59178e-014
-1.10558e-014
-2.60347e-014
-6.39246e-016
6.24084e-014
2.15626e-015
1.71807e-014
-3.32789e-014
1.22298e-015
8.47322e-013
-1.9533e-015
1.33227e-013
-4.61436e-015
3.11573e-012
1.45049e-014
1.18616e-012
1.07761e-014
-1.31717e-012
-3.22875e-014
-2.03926e-012
-4.14313e-014
2.16271e-013
-1.56056e-014
-2.07478e-012
3.63693e-014
1.67777e-012
2.43807e-014
4.82725e-013
1.57117e-013
-4.72511e-013
2.34656e-012
-1.72085e-012
4.99711e-011
-2.97096e-013
6.01283e-010
8.30003e-013
1.00944e-008
1.48193e-012
1.03254e-007
-4.91163e-013
1.339e-006
-2.67786e-013
1.1387e-005
1.87894e-012
0.000110354
5.973e-013
0.000756624
-4.52527e-013
0.00517423
-1.17462e-012
0.0268824
-6.7768e-013
0.112551
7.90479e-014
0.344556
-7.34968e-013
0.773815
-3.87468e-013
1.36394
2.34168e-012
1.83694
2.41163e-012
1.97438
7.34146e-012
1.86367
7.22411e-012
1.76238
7.06291e-012
1.67237
5.47096e-012
1.46816
2.47147e-012
0.817972
-1.09246e-012
0.115857
-9.79772e-014
0.0181686
3.70537e-014
0.00285823
7.82707e-015
0.000446019
1.83187e-015
6.90594e-005
2.2593e-014
1.02768e-005
2.8505e-014
1.46783e-006
-7.41629e-014
2.01458e-007
-3.44447e-014
2.63091e-008
-2.88936e-014
3.35378e-009
2.51188e-014
4.03899e-010
-3.94129e-015
4.84349e-011
-1.52933e-014
5.43561e-012
8.40994e-015
6.1958e-013
-1.31839e-015
6.58475e-014
3.19605e-014
5.51902e-015
-4.83225e-014
-3.45232e-015
-3.407e-014
1.26722e-015
6.0521e-014
-3.06591e-015
3.0545e-014
-4.4062e-016
-2.11914e-014
1.01347e-014
9.31616e-014
4.70934e-015
2.15106e-015
-1.92988e-015
1.60982e-014
-6.08411e-015
-3.0323e-014
-1.1679e-015
7.26641e-014
-2.15583e-015
-7.11931e-015
-3.02536e-014
-6.40113e-016
-8.52651e-014
3.3324e-015
-4.07674e-013
-3.08347e-015
1.86429e-012
1.50756e-014
1.65556e-012
1.18031e-014
-1.61204e-013
-3.44794e-014
-1.82432e-012
-4.30567e-014
-3.9746e-013
-1.63428e-014
-1.99263e-012
3.41741e-014
1.49258e-012
2.5647e-014
1.0747e-012
1.52226e-013
-2.35056e-012
2.27242e-012
-2.41362e-012
4.836e-011
2.22045e-013
5.81858e-010
1.34293e-012
9.76825e-009
1.7204e-012
9.99176e-008
-4.84057e-013
1.29574e-006
1.55875e-013
1.10191e-005
1.74438e-012
0.000106789
6.75016e-013
0.000732175
-1.12976e-012
0.00500704
-1.17906e-012
0.0260138
-6.63469e-013
0.108915
-1.67866e-013
0.333423
-9.57012e-013
0.748812
-4.2677e-013
1.31987
2.58904e-012
1.77758
3.09375e-012
1.91059
7.82641e-012
1.80345
8.58169e-012
1.70543
7.58837e-012
1.61833
5.24647e-012
1.42072
1.02951e-012
0.791541
-2.97062e-012
0.112114
-3.98903e-013
0.0175815
2.09555e-014
0.00276587
2.53686e-014
0.000431607
-2.17881e-014
6.68279e-005
1.64868e-014
9.94478e-006
2.10665e-014
1.42041e-006
-2.95319e-014
1.94949e-007
-2.98372e-014
2.5459e-008
-8.40994e-015
3.24541e-009
1.25178e-014
3.90846e-010
7.79932e-015
4.68678e-011
-1.50435e-014
5.25931e-012
8.88178e-016
5.99601e-013
3.12528e-014
6.1844e-014
2.8158e-014
9.77517e-016
-3.82472e-014
-4.06728e-015
2.15938e-014
3.97967e-015
1.91513e-014
9.17018e-016
4.75314e-014
2.60078e-015
-2.73115e-014
1.22059e-014
8.4488e-014
8.17684e-015
-1.67921e-014
-3.01235e-015
4.96825e-014
-9.33476e-015
-5.48311e-014
-1.4086e-015
5.01266e-014
2.34621e-016
-1.71113e-014
-1.32949e-014
1.86483e-015
8.31335e-013
-2.74086e-016
6.91891e-013
-4.99514e-015
2.2462e-012
9.54705e-015
1.65912e-012
8.99628e-015
7.72715e-013
-2.90289e-014
-5.58664e-013
-3.81674e-014
-6.06182e-013
-1.09418e-014
-2.26485e-012
3.34793e-014
2.31504e-012
1.85433e-014
-2.35367e-014
1.46355e-013
-2.37366e-012
2.20159e-012
-1.56719e-012
4.67977e-011
5.03597e-013
5.63053e-010
1.16485e-012
9.45262e-009
1.62625e-012
9.66891e-008
-7.06546e-013
1.25387e-006
8.02913e-013
1.0663e-005
1.46727e-012
0.000103338
7.45626e-013
0.000708517
-1.17728e-012
0.00484525
-7.95364e-013
0.0251732
-7.99361e-013
0.105395
-4.70735e-014
0.322649
-1.26477e-012
0.724616
-6.0485e-013
1.27722
3.11906e-012
1.72015
3.44658e-012
1.84885
7.55263e-012
1.74518
8.88445e-012
1.65033
7.12974e-012
1.56604
4.14646e-012
1.37481
-1.13631e-012
0.765965
-5.24558e-012
0.108491
-6.41209e-013
0.0170134
2.41751e-014
0.0026765
3.07809e-014
0.000417661
-5.47618e-014
6.46686e-005
-1.77636e-015
9.62345e-006
9.1871e-015
1.37451e-006
-6.245e-015
1.8865e-007
-5.63161e-014
2.46364e-008
-2.58404e-014
3.14054e-009
1.67089e-014
3.78219e-010
3.16414e-014
4.53554e-011
9.29812e-015
5.09059e-012
9.60343e-015
5.80418e-013
5.50116e-014
6.12687e-014
2.10665e-014
4.98104e-015
-8.78742e-014
-2.07451e-015
8.46545e-015
1.61893e-015
-1.0783e-014
-3.15676e-015
1.71252e-014
-4.58834e-016
-1.93873e-014
8.56672e-015
9.00668e-014
3.9478e-015
-1.26982e-014
-1.88651e-015
5.94663e-014
-5.00923e-015
-4.9391e-014
-1.86418e-015
4.18693e-014
-3.30205e-015
-8.29892e-015
3.09475e-014
1.63498e-016
1.33316e-012
5.28223e-015
1.30029e-012
-1.64625e-015
2.99138e-012
1.15749e-014
1.98597e-012
8.37004e-015
1.30651e-012
-3.38436e-014
-1.82965e-013
-3.97373e-014
-2.8022e-013
-1.16504e-014
-2.40963e-012
3.08434e-014
1.64135e-012
1.80238e-014
-4.7784e-013
1.42552e-013
-1.90248e-012
2.13309e-012
-1.25944e-012
4.52897e-011
9.40581e-013
5.44864e-010
1.09424e-012
9.14718e-009
9.05498e-013
9.35648e-008
-1.05027e-012
1.21335e-006
1.32383e-012
1.03185e-005
1.21902e-012
9.99991e-005
4.52971e-014
0.000685624
-1.03872e-012
0.00468869
-1.01918e-012
0.0243598
-1.20659e-012
0.10199
1.33227e-014
0.312224
-1.08091e-012
0.701202
-6.42597e-013
1.23595
3.17102e-012
1.66456
3.58691e-012
1.78911
7.08034e-012
1.68879
8.43781e-012
1.597
6.31772e-012
1.51544
2.74114e-012
1.33039
-3.38329e-012
0.741215
-7.36722e-012
0.104986
-1.04777e-012
0.0164637
1.26843e-014
0.00259002
3.91076e-014
0.000404165
-2.27318e-014
6.2579e-005
-2.05669e-014
9.31249e-006
4.69069e-015
1.3301e-006
8.6875e-015
1.82554e-007
-6.91114e-014
2.38403e-008
-1.92901e-014
3.03907e-009
2.43694e-014
3.65996e-010
3.69704e-014
4.3888e-011
-9.88098e-015
4.92536e-012
-5.27356e-016
5.60719e-013
2.48135e-014
5.74337e-014
1.16573e-014
1.60809e-015
-1.0128e-013
-3.66547e-015
1.66533e-015
3.45709e-015
3.72063e-014
1.10632e-015
2.93376e-014
2.80028e-015
-3.39312e-014
1.18885e-014
9.89209e-014
7.03344e-015
-2.68396e-014
-3.51368e-015
1.1241e-014
-8.33274e-015
-4.30073e-014
-1.29367e-015
4.59771e-014
9.54098e-017
-6.38378e-015
4.0648e-014
1.97108e-015
1.43263e-012
-5.50775e-017
7.43405e-013
-6.22679e-015
3.34754e-012
7.47232e-015
1.46105e-012
7.25114e-015
6.11955e-013
-2.88528e-014
7.08766e-013
-3.70814e-014
-5.28466e-013
-7.30492e-015
-2.20801e-012
2.89586e-014
1.18083e-012
1.51381e-014
-4.51639e-013
1.39001e-013
-1.27942e-012
2.06489e-012
-1.92157e-012
4.38244e-011
1.49214e-012
5.27253e-010
4.25437e-013
8.85162e-009
1.03473e-013
9.05416e-008
-7.0699e-013
1.17415e-006
1.68443e-012
9.98507e-006
9.41025e-013
9.67679e-005
-3.71703e-013
0.00066347
-5.78648e-013
0.00453719
-6.96776e-013
0.0235727
-1.59828e-012
0.0986944
-2.59792e-013
0.302135
-9.22817e-013
0.678545
-9.06386e-013
1.19602
2.8948e-012
1.61078
3.23763e-012
1.7313
6.19926e-012
1.63422
8.14848e-012
1.5454
5.76172e-012
1.46647
1.80289e-012
1.2874
-4.80005e-012
0.717265
-8.77676e-012
0.101593
-1.29913e-012
0.0159317
-2.33424e-014
0.00250633
2.68119e-014
0.000391106
-1.36557e-014
6.0557e-005
-9.57567e-015
9.01159e-006
1.19071e-014
1.28712e-006
1.54321e-014
1.76655e-007
-5.29299e-014
2.307e-008
-5.3485e-014
2.94087e-009
3.2474e-014
3.54171e-010
8.01581e-014
4.24717e-011
8.21565e-015
4.76721e-012
-8.02136e-015
5.42877e-013
2.40086e-014
5.64117e-014
-1.2268e-014
4.60526e-015
-1.10745e-013
-1.26353e-015
-1.53766e-014
1.69482e-015
4.47559e-014
-2.11246e-015
-3.30291e-015
-1.23165e-016
-3.01287e-014
8.00727e-015
1.14062e-013
3.41719e-015
-2.4078e-014
-2.13675e-015
-7.78544e-015
-4.3431e-015
-3.61239e-014
-1.71803e-015
4.42008e-014
-2.12308e-015
4.81559e-015
6.76126e-014
1.17788e-015
1.16707e-012
7.29061e-015
1.36691e-012
-1.72085e-015
2.45848e-012
9.24434e-015
1.39622e-012
5.45397e-015
-4.17444e-013
-3.3494e-014
1.6831e-012
-3.79393e-014
-5.09814e-013
-8.573e-015
-2.31903e-012
2.79976e-014
8.83738e-013
1.38995e-014
-9.08162e-013
1.34436e-013
-1.60627e-012
2.00083e-012
-1.73328e-012
4.24112e-011
1.51212e-012
5.10219e-010
1.93179e-013
8.5656e-009
3.01092e-013
8.7616e-008
-9.71223e-013
1.13621e-006
1.9349e-012
9.66243e-006
9.42801e-013
9.36411e-005
-1.51434e-013
0.000642032
-3.73923e-013
0.00439059
-4.18776e-013
0.022811
-1.25233e-012
0.0955054
-4.89386e-013
0.292372
-9.22373e-013
0.65662
-8.26894e-013
1.15737
2.74891e-012
1.55873
2.98361e-012
1.67536
4.97247e-012
1.58141
8.02092e-012
1.49547
5.80036e-012
1.41909
1.49503e-012
1.2458
-5.09925e-012
0.694089
-8.95306e-012
0.0983106
-1.34343e-012
0.0154169
-6.12288e-014
0.00242534
2.28151e-014
0.000378468
-1.7486e-015
5.86002e-005
9.07607e-015
8.7204e-006
2.12608e-014
1.24553e-006
2.60902e-015
1.70947e-007
-4.44089e-015
2.23246e-008
-8.74301e-014
2.84584e-009
3.68594e-014
3.42726e-010
8.36553e-014
4.10974e-011
9.4369e-015
4.61251e-012
-2.08167e-014
5.24249e-013
4.63518e-014
5.32985e-014
-8.6875e-015
2.88333e-015
-8.72358e-014
-2.07104e-015
-1.63758e-015
2.42666e-015
6.70297e-014
5.08491e-016
-2.30926e-014
3.39789e-015
-1.05888e-014
1.01481e-014
1.02751e-013
5.32126e-015
3.34455e-015
-3.0117e-015
-1.47382e-014
-6.24804e-015
-2.35229e-014
-9.14416e-016
5.44148e-014
4.94179e-016
8.74301e-015
4.90719e-014
1.76074e-015
1.84741e-012
5.21718e-016
1.3145e-013
-7.88432e-015
1.91935e-012
5.90326e-015
1.49569e-012
7.43242e-015
4.79616e-013
-2.9989e-014
1.82965e-012
-3.38288e-014
2.60236e-013
-5.46785e-015
-2.45404e-012
2.6563e-014
4.00568e-013
1.25776e-014
-1.1795e-012
1.31094e-013
-2.23466e-012
1.93655e-012
-1.56231e-012
4.10381e-011
1.11777e-012
4.93728e-010
4.9738e-013
8.28883e-009
9.21929e-013
8.47849e-008
-1.31006e-012
1.09949e-006
1.63114e-012
9.35022e-006
6.2883e-013
9.06154e-005
5.55112e-014
0.000621286
-2.35811e-013
0.00424872
-1.98952e-013
0.0220739
-1.20748e-012
0.0924194
-2.3892e-013
0.282925
-1.14575e-012
0.635403
-9.21485e-013
1.11998
2.52509e-012
1.50837
2.65321e-012
1.62123
3.96239e-012
1.53032
8.14793e-012
1.44714
5.85554e-012
1.37323
1.52478e-012
1.20555
-4.72533e-012
0.671661
-7.96707e-012
0.095134
-1.17478e-012
0.0149188
-5.80369e-014
0.00234698
4.55469e-014
0.000366239
-5.08205e-014
5.67067e-005
3.27793e-014
8.43863e-006
2.68952e-014
1.20528e-006
1.30174e-014
1.65424e-007
2.67009e-014
2.16032e-008
-8.29059e-014
2.75389e-009
1.67644e-014
3.31653e-010
6.76958e-014
3.97709e-011
1.46272e-014
4.46408e-012
-3.45834e-014
5.07795e-013
8.94285e-014
5.23813e-014
2.37588e-014
4.48426e-015
-9.71168e-014
-8.69964e-016
1.46549e-014
1.67141e-015
5.27356e-014
-1.11217e-015
-4.60743e-014
6.59412e-016
1.30451e-015
6.69712e-015
9.82409e-014
2.79551e-015
-1.249e-014
-1.70458e-015
-2.9976e-014
-3.38054e-015
-2.62013e-014
-1.32294e-015
4.35485e-014
-9.12898e-016
1.22125e-014
2.59931e-014
1.96371e-015
9.43245e-013
7.44977e-015
-6.14619e-013
-2.4941e-015
7.79821e-013
7.6137e-015
2.25686e-012
5.31563e-015
1.01696e-012
-3.34862e-014
1.57563e-012
-3.60692e-014
8.65086e-013
-7.1592e-015
-3.24984e-012
2.51014e-014
8.9706e-014
1.11326e-014
-8.41105e-013
1.27733e-013
-1.87139e-012
1.87681e-012
-2.4456e-012
3.97149e-011
1.00853e-012
4.77778e-010
5.11147e-013
8.021e-009
1.68665e-012
8.20453e-008
-1.17462e-012
1.06397e-006
9.42357e-013
9.04809e-006
5.82645e-013
8.76874e-005
7.90479e-014
0.000601211
-2.73559e-013
0.00411143
-4.19664e-013
0.0213607
-1.06093e-012
0.0894331
-4.54303e-013
0.273783
-1.09779e-012
0.614872
-6.50591e-013
1.08379
2.43849e-012
1.45963
2.22466e-012
1.56884
3.00004e-012
1.48087
7.75313e-012
1.40038
5.43443e-012
1.32886
1.15152e-012
1.1666
-4.71101e-012
0.649958
-7.33091e-012
0.09206
-9.42912e-013
0.0144367
-5.98965e-014
0.00227114
6.31439e-014
0.000354405
-6.30884e-014
5.48744e-005
3.84692e-014
8.16596e-006
3.31124e-014
1.16634e-006
1.33227e-015
1.60078e-007
4.41314e-014
2.09052e-008
-5.29854e-014
2.6649e-009
-2.18991e-014
3.20935e-010
3.8386e-014
3.84844e-011
2.07612e-014
4.31965e-012
-1.93734e-014
4.90205e-013
1.03861e-013
4.94427e-014
1.74583e-014
4.01372e-015
-5.9508e-014
-1.12345e-015
3.54716e-014
1.1189e-015
3.40838e-014
5.25188e-016
-3.41116e-014
3.96536e-015
2.10942e-014
8.91886e-015
8.62088e-014
3.45297e-015
-1.35308e-014
-2.47502e-015
-1.84575e-014
-4.65209e-015
-9.27036e-015
-8.20091e-016
4.38538e-014
3.71448e-016
5.57887e-015
3.02536e-015
1.48319e-016
-1.63425e-013
1.37347e-015
-1.41043e-012
-6.61884e-015
-4.70735e-014
5.64002e-015
2.19025e-012
6.87341e-015
1.19815e-012
-3.0875e-014
1.803e-012
-3.37499e-014
7.5584e-013
-4.45477e-015
-2.81286e-012
2.42861e-014
3.64153e-014
1.05176e-014
-1.16529e-012
1.24209e-013
-1.72573e-012
1.81637e-012
-3.05977e-012
3.84305e-011
8.23341e-013
4.62336e-010
-1.0969e-013
7.76182e-009
2.39897e-012
7.93943e-008
-1.2883e-012
1.02959e-006
7.66942e-013
8.75573e-006
6.79012e-013
8.4854e-005
1.82521e-013
0.000581785
-5.13367e-013
0.00397858
-3.9968e-013
0.0206705
-1.25988e-012
0.0865433
-2.01172e-013
0.264937
-1.22924e-012
0.595004
-6.27498e-013
1.04877
2.09033e-012
1.41246
1.78302e-012
1.51815
2.48379e-012
1.43302
6.82909e-012
1.35513
4.28912e-012
1.28592
-6.4504e-014
1.1289
-5.67713e-012
0.628957
-7.26652e-012
0.0890853
-9.65283e-013
0.0139703
-3.93297e-014
0.00219775
9.86988e-014
0.000342954
-4.34652e-014
5.31013e-005
2.09555e-014
7.9021e-006
5.25968e-014
1.12865e-006
-6.30052e-015
1.54906e-007
3.16136e-014
2.02297e-008
-1.64591e-014
2.57879e-009
-5.30409e-014
3.10566e-010
1.16573e-014
3.72423e-011
2.02616e-015
4.18071e-012
-2.04836e-014
4.75099e-013
8.02969e-014
4.81167e-014
1.88738e-014
4.24617e-015
-3.83304e-014
-7.85179e-016
3.48332e-014
1.26114e-015
2.1233e-014
1.25551e-016
-1.86517e-014
9.6147e-016
1.06304e-014
5.18552e-015
8.9817e-014
2.3911e-015
1.4988e-014
-9.20921e-016
-3.70676e-014
-2.64155e-015
1.51684e-014
-1.13299e-015
2.82135e-014
-8.89913e-016
-1.52378e-014
-1.02002e-014
2.55395e-015
-2.14051e-013
7.62498e-015
-7.74492e-013
-9.00755e-016
-1.45661e-013
6.58414e-015
1.55431e-012
4.86026e-015
7.79821e-013
-3.31358e-014
1.54898e-012
-3.58541e-014
8.5798e-013
-5.84819e-015
-2.46381e-012
2.36972e-014
1.05604e-012
8.44637e-015
-5.1692e-013
1.19865e-013
-1.8181e-012
1.76055e-012
-3.13616e-012
3.71921e-011
4.42313e-013
4.474e-010
-3.86358e-013
7.51102e-009
2.94964e-012
7.68289e-008
-1.27187e-012
9.9632e-007
6.29274e-013
8.47281e-006
8.12239e-013
8.21122e-005
3.16636e-013
0.000562986
-5.52003e-013
0.00385003
-1.61648e-013
0.0200026
-1.01208e-012
0.0837469
-2.19824e-013
0.256376
-1.15463e-012
0.575778
-6.67022e-013
1.01488
1.80211e-012
1.36682
1.43618e-012
1.46909
1.91491e-012
1.38671
5.30842e-012
1.31135
2.40663e-012
1.24437
-1.98097e-012
1.09242
-7.30405e-012
0.608634
-7.75591e-012
0.0862068
-9.35696e-013
0.0135188
-1.89293e-014
0.00212674
1.27981e-013
0.000331872
-2.25653e-014
5.13855e-005
2.19269e-014
7.64677e-006
5.20972e-014
1.09218e-006
-3.47777e-014
1.49901e-007
2.85882e-014
1.9576e-008
1.60982e-014
2.49547e-009
-6.65024e-014
3.0053e-010
-3.9968e-014
3.60379e-011
-1.80966e-014
4.04531e-012
5.63438e-015
4.58586e-013
6.3477e-014
4.60086e-014
4.09672e-014
4.5556e-015
-3.53051e-014
-1.00961e-015
1.8513e-014
4.67291e-016
-1.7486e-015
6.88035e-016
-1.76525e-014
4.06944e-015
2.02338e-014
7.79108e-015
5.57054e-014
2.42428e-015
2.1233e-014
-1.94983e-015
-2.13718e-014
-4.02152e-015
6.31439e-015
-1.20542e-015
2.49106e-014
-1.88217e-016
-3.67345e-014
-2.38698e-015
-8.10983e-016
-1.36335e-012
2.74824e-015
-8.54428e-013
-4.08484e-015
-4.40536e-013
6.0776e-015
1.0365e-012
6.22592e-015
3.09974e-013
-3.15464e-014
1.28608e-012
-3.34932e-014
7.30971e-013
-3.89836e-015
-2.2693e-012
2.16415e-014
1.1342e-012
8.76469e-015
2.4869e-013
1.16699e-013
-2.50999e-012
1.70292e-012
-3.36353e-012
3.59898e-011
5.63993e-013
4.32941e-010
-6.4837e-014
7.26833e-009
3.21076e-012
7.43464e-008
-1.24034e-012
9.64127e-007
8.38885e-013
8.19904e-006
7.62945e-013
7.9459e-005
3.81473e-013
0.000544795
-6.99441e-013
0.00372562
-1.21236e-013
0.0193562
-1.11866e-012
0.0810409
-4.08562e-013
0.248092
-8.83293e-013
0.557174
-5.64437e-013
0.982087
1.30562e-012
1.32266
1.26299e-012
1.42162
1.73617e-012
1.34191
3.62332e-012
1.26897
6.41043e-013
1.20417
-3.56415e-012
1.05713
-7.91889e-012
0.588968
-7.3006e-012
0.0834213
-7.36133e-013
0.013082
6.66134e-015
0.00205802
1.57818e-013
0.000321149
-3.61655e-014
4.97251e-005
-1.39611e-014
7.39968e-006
4.69069e-014
1.05689e-006
-3.96072e-014
1.45057e-007
3.0892e-014
1.89435e-008
2.03171e-014
2.41483e-009
-7.01939e-014
2.9082e-010
-4.7351e-014
3.48746e-011
-2.73392e-014
3.91519e-012
2.40086e-014
4.44823e-013
5.24858e-014
4.4531e-014
4.99045e-014
3.9697e-015
-5.13201e-014
-6.76759e-016
2.42306e-014
1.16877e-015
7.10543e-015
9.05309e-016
-6.7446e-015
1.43418e-015
-6.245e-015
4.3097e-015
4.42701e-014
1.77115e-015
2.68396e-014
-5.06106e-016
-2.63956e-014
-2.59059e-015
1.52656e-014
-1.36414e-015
5.16809e-014
-8.64976e-016
-2.64372e-014
1.84575e-015
3.33978e-015
-5.66658e-013
7.21168e-015
-1.38822e-012
-1.01351e-015
-2.21156e-013
6.23026e-015
1.28075e-012
4.9973e-015
7.4607e-013
-3.17463e-014
9.40581e-013
-3.45739e-014
-1.42109e-014
-3.7483e-015
-1.57652e-012
2.14208e-014
1.57296e-012
4.78914e-015
-4.68958e-013
1.11563e-013
-2.4345e-012
1.65102e-012
-3.40172e-012
3.48304e-011
9.92095e-013
4.18955e-010
1.56319e-013
7.03347e-009
3.70992e-012
7.19441e-008
-1.30917e-012
9.32974e-007
1.04849e-012
7.93411e-006
7.63833e-013
7.68915e-005
4.92051e-013
0.000527191
-6.54587e-013
0.00360524
-8.39329e-014
0.0187308
-1.0254e-012
0.0784223
-1.0969e-013
0.240076
-8.52207e-013
0.53917
-4.96936e-013
0.950353
7.79377e-013
1.27992
1.30695e-012
1.37569
1.47105e-012
1.29855
2.71183e-012
1.22797
-4.13669e-013
1.16526
-3.7077e-012
1.02297
-6.58928e-012
0.569937
-5.25469e-012
0.0807258
-6.50757e-013
0.0126593
3.08642e-014
0.00199152
1.55903e-013
0.000310772
-1.94567e-014
4.81184e-005
-3.68316e-014
7.16058e-006
6.80844e-014
1.02274e-006
-4.17166e-014
1.4037e-007
7.77156e-015
1.83314e-008
2.34812e-014
2.33681e-009
-9.29534e-014
2.81422e-010
-3.53051e-014
3.37472e-011
-3.46945e-015
3.78853e-012
3.55826e-014
4.29186e-013
3.86635e-014
4.27468e-014
4.43534e-014
4.37389e-015
-5.12645e-014
-1.09656e-015
2.37588e-014
4.31729e-016
3.90243e-014
8.67795e-016
-2.94209e-015
3.89988e-015
5.30131e-015
7.16983e-015
3.88301e-014
1.85247e-015
5.27356e-015
-1.77614e-015
-2.35922e-014
-3.72011e-015
3.74978e-014
-1.65666e-015
5.54279e-014
-2.00144e-016
-1.53766e-014
-1.30451e-015
-7.29885e-016
-4.72511e-013
4.09438e-015
-1.53744e-012
-2.59992e-015
-5.71987e-013
6.52169e-015
1.70974e-012
5.88375e-015
3.4639e-014
-3.10117e-014
3.67706e-013
-3.25412e-014
-4.15668e-013
-2.88701e-015
-1.5552e-012
1.92303e-014
2.1787e-012
5.66864e-015
-2.89546e-013
1.09545e-013
-2.17693e-012
1.59762e-012