/*--------------------------------*- C++ -*----------------------------------*\
| =========                 |                                                 |
| \\      /  F ield         | OpenFOAM: The Open Source CFD Toolbox           |
|  \\    /   O peration     | Version:  5.x                                   |
|   \\  /    A nd           | Web:      www.OpenFOAM.org                      |
|    \\/     M anipulation  |                                                 |
\*---------------------------------------------------------------------------*/
/*   Windows 32 and 64 bit porting by blueCAPE: http://www.bluecape.com.pt   *\
|  Based on Windows porting (2.0.x v4) by Symscape: http://www.symscape.com   |
\*---------------------------------------------------------------------------*/
FoamFile
{
    version     2.0;
    format      ascii;
    class       surfaceScalarField;
    location    "0.001";
    object      phi_0;
}
// * * * * * * * * * * * * * * * * * * * * * * * * * * * * * * * * * * * * * //

dimensions      [1 0 -1 0 0 0 0];

internalField   nonuniform List<scalar> 
19740
(
-1.10268e-014
-9.49019e-013
-5.0333e-015
8.78408e-013
3.22051e-015
-5.54223e-013
3.39147e-014
1.74971e-012
2.36955e-014
-1.4122e-013
-3.72341e-014
-5.65326e-013
-5.5486e-014
-3.97016e-013
-3.07662e-014
-1.82077e-013
3.36285e-014
2.57572e-013
2.9427e-014
3.82805e-013
2.00151e-013
7.59393e-013
2.90669e-012
2.13607e-013
6.19245e-011
4.2899e-013
7.45716e-010
-5.47118e-013
1.25365e-008
-3.92575e-013
1.28332e-007
2.1716e-013
1.66647e-006
3.96128e-013
1.41833e-005
3.25961e-013
0.000137639
-4.42313e-013
0.000944486
3.90354e-013
0.00646804
2.04725e-013
0.0336424
-3.52607e-013
0.141066
-1.83187e-013
0.432401
-3.67706e-013
0.972111
-4.61409e-013
1.71521
1.90736e-013
2.31126
4.20552e-013
2.48445
-3.41738e-012
2.34575
-9.77995e-013
2.21996
1.20681e-013
2.10692
-4.05953e-013
1.84484
-1.38589e-012
1.01851
-1.61643e-012
0.144189
-2.23987e-014
0.0226071
-7.66054e-015
0.00355896
2.8394e-014
0.000555333
-9.74221e-015
8.59401e-005
-4.23134e-014
1.27798e-005
4.21468e-014
1.82371e-006
1.41831e-014
2.50078e-007
2.11497e-014
3.26253e-008
2.11914e-014
4.15503e-009
2.60347e-014
4.99855e-010
-1.93179e-014
5.98841e-011
-1.14214e-014
6.71545e-012
7.11931e-015
7.65399e-013
-5.55112e-015
8.02284e-014
-2.16077e-014
1.82363e-015
-2.24265e-014
-7.42722e-015
-2.38698e-014
4.3303e-015
-6.30052e-015
-1.67574e-015
1.93595e-014
-2.03396e-016
-3.13083e-014
1.74058e-014
-9.78384e-015
1.34697e-014
1.22541e-014
-5.44443e-015
-1.98452e-014
-1.68446e-014
-1.84297e-014
-2.15973e-016
1.71807e-014
4.42398e-015
1.12688e-014
9.50628e-015
-6.92155e-015
-1.17639e-012
-7.63799e-015
1.60583e-012
-7.12971e-016
6.66134e-014
3.0761e-014
3.01092e-012
2.54345e-014
5.51115e-013
-3.38948e-014
-6.21281e-013
-5.16809e-014
-6.62581e-013
-2.82803e-014
-1.35669e-012
3.37352e-014
-4.35207e-013
2.78536e-014
2.28706e-013
1.91464e-013
6.39933e-013
2.81003e-012
1.93179e-013
5.99218e-011
6.81677e-013
7.2162e-010
-4.44089e-015
1.21314e-008
-5.19584e-014
1.24185e-007
4.84057e-014
1.61262e-006
6.95e-013
1.3725e-005
5.79536e-013
0.000133191
-4.94271e-013
0.000913967
-5.55112e-014
0.00625905
-5.19584e-013
0.0325554
-4.78506e-013
0.136508
-1.15685e-013
0.418429
5.75096e-014
0.9407
-4.16112e-013
1.65979
-1.86073e-013
2.23658
2.46025e-013
2.40417
-6.18727e-012
2.26995
-2.42351e-012
2.14823
-4.13558e-013
2.03884
-6.87561e-013
1.78523
-1.35597e-012
0.985596
-1.23257e-012
0.13953
1.14964e-013
0.0218766
3.27238e-014
0.00344396
1.13798e-014
0.000537389
7.07767e-015
8.31632e-005
-3.6221e-014
1.23668e-005
7.86732e-014
1.76478e-006
6.46705e-015
2.41997e-007
-1.31839e-015
3.15711e-008
3.28487e-014
4.02077e-009
5.11813e-014
4.83705e-010
-7.04992e-015
5.79502e-011
2.85327e-014
6.49814e-012
3.60822e-015
7.40476e-013
1.48492e-015
7.83401e-014
-6.93473e-014
3.00237e-015
-1.21986e-014
-7.39729e-015
-1.93456e-014
2.97115e-015
2.09555e-015
-3.17238e-015
4.03011e-014
2.086e-016
2.76168e-015
1.66551e-014
8.07687e-015
1.08585e-014
-2.51188e-015
-4.55625e-015
-1.67921e-015
-1.46103e-014
-3.48888e-014
-3.66894e-016
5.37487e-014
3.92091e-015
2.36339e-014
7.66054e-015
-8.64326e-015
-7.30527e-013
-9.31547e-016
2.71116e-012
8.14886e-015
8.81073e-013
2.99526e-014
1.80211e-012
1.58693e-014
-3.04645e-013
-3.69392e-014
-5.81757e-013
-4.80345e-014
-8.14904e-013
-2.84746e-014
-3.40528e-012
3.267e-014
-2.44693e-013
2.92344e-014
-5.3646e-013
1.88394e-013
9.23706e-013
2.72169e-012
-7.9492e-014
5.79849e-011
7.54952e-015
6.98303e-010
1.27454e-013
1.17394e-008
4.57856e-013
1.20173e-007
-5.77316e-015
1.56051e-006
6.51923e-013
1.32815e-005
8.28226e-013
0.000128888
-3.21076e-013
0.000884435
1.76748e-013
0.0060568
-4.31211e-013
0.0315034
-8.11351e-013
0.132097
-1.29896e-013
0.404909
2.9754e-013
0.910304
-1.39888e-014
1.60616
-8.14904e-014
2.16431
-5.61773e-014
2.32649
-7.0145e-012
2.19661
-3.61122e-012
2.07882
-9.42468e-013
1.97296
-4.71623e-013
1.72755
-3.51386e-014
0.953749
8.12517e-013
0.135021
3.41227e-013
0.0211698
6.15619e-014
0.00333268
2.44527e-014
0.000520025
1.39888e-014
8.0476e-005
-4.41314e-015
1.19672e-005
5.1209e-014
1.70776e-006
1.12549e-014
2.34178e-007
-2.54657e-014
3.0551e-008
7.69801e-014
3.89086e-009
3.87468e-014
4.68074e-010
1.10467e-014
5.6076e-011
4.08978e-014
6.28836e-012
4.90996e-014
7.16438e-013
-2.8727e-015
7.3901e-014
-4.69069e-014
7.07333e-016
-1.26288e-015
-5.67992e-015
2.16493e-014
5.70941e-015
-5.2458e-015
-1.31622e-015
2.11359e-014
-3.13985e-016
4.0204e-014
1.73637e-014
2.14412e-014
1.29445e-014
1.72085e-015
-5.29221e-015
-2.99899e-014
-1.51125e-014
-1.03251e-014
7.14706e-016
5.31797e-014
4.83858e-015
2.26347e-014
-2.11359e-014
-2.47458e-015
-3.04201e-013
-7.05165e-015
1.52856e-012
-1.7434e-015
2.0477e-012
2.65656e-014
1.2168e-012
1.96579e-014
-2.15383e-013
-3.48393e-014
-1.81677e-012
-4.94335e-014
-4.27658e-013
-2.39166e-014
-2.81286e-012
3.69574e-014
6.83897e-013
2.72707e-014
-1.10889e-012
1.78391e-013
1.20126e-012
2.63068e-012
-8.92619e-014
5.61113e-011
-1.15019e-013
6.7574e-010
6.56364e-013
1.13601e-008
8.31335e-013
1.1629e-007
-6.75016e-013
1.51009e-006
4.41425e-013
1.28523e-005
1.28741e-012
0.000124723
2.54019e-013
0.000855857
1.23457e-013
0.0058611
-9.19265e-013
0.0304855
-5.0937e-013
0.127829
-2.22489e-013
0.391825
5.52447e-013
0.88089
2.82441e-013
1.55426
5.74651e-013
2.09438
-1.78524e-013
2.25132
-5.02487e-012
2.12563
-3.12672e-012
2.01164
-1.58207e-013
1.90921
6.13176e-013
1.67172
1.82632e-012
0.922931
2.6763e-012
0.130658
6.52173e-013
0.0204857
7.29139e-014
0.00322499
1.40998e-014
0.000503221
-2.22045e-016
7.78756e-005
-3.8608e-014
1.15806e-005
3.63876e-014
1.65258e-006
-3.20854e-014
2.26611e-007
-2.22045e-016
2.95638e-008
6.32827e-014
3.76513e-009
1.9984e-014
4.52952e-010
5.3485e-014
5.42657e-011
5.82867e-014
6.08401e-012
4.69208e-014
6.92605e-013
5.63438e-015
7.46105e-014
-1.09912e-014
4.39449e-015
-1.37806e-014
-6.39527e-015
8.60423e-015
2.41257e-015
1.03806e-014
-3.77216e-015
1.52656e-016
-4.80085e-016
6.47815e-014
1.48488e-014
2.13579e-014
8.42859e-015
-2.13718e-014
-3.48029e-015
-2.32037e-014
-1.08529e-014
-8.79852e-015
-9.32848e-016
5.40679e-014
9.59302e-016
3.03924e-014
7.16094e-015
-4.95437e-015
6.24834e-013
4.8312e-016
2.2311e-012
5.44877e-015
3.56559e-012
2.58205e-014
2.73115e-013
1.31778e-014
1.44329e-013
-3.78222e-014
-1.28386e-012
-4.61783e-014
4.94271e-013
-2.36434e-014
-3.1104e-012
3.38262e-014
8.29559e-013
2.90679e-014
-8.96616e-013
1.76522e-013
2.24354e-012
2.54814e-012
-2.25153e-013
5.42998e-011
-2.85993e-013
6.53905e-010
1.14753e-012
1.0993e-008
1.18394e-012
1.12532e-007
-8.40217e-013
1.4613e-006
2.63789e-013
1.24371e-005
2.12097e-012
0.000120693
3.54383e-013
0.000828203
6.57252e-014
0.00567171
-1.05205e-012
0.0295004
-4.78284e-013
0.123699
4.44089e-016
0.379165
4.30767e-013
0.852426
4.13669e-013
1.50404
1.28986e-012
2.0267
2.60902e-013
2.17857
-1.10045e-012
2.05695
-6.3427e-013
1.94664
1.64113e-012
1.84752
2.29494e-012
1.61771
3.27138e-012
0.89311
3.33017e-012
0.126436
6.67411e-013
0.0198238
8.00748e-014
0.00312079
5.37625e-014
0.000486961
-3.96627e-014
7.53593e-005
-4.7462e-015
1.12064e-005
5.80647e-014
1.59918e-006
-6.88893e-014
2.19289e-007
-4.60743e-015
2.86085e-008
3.63043e-014
3.64347e-009
5.10703e-015
4.38313e-010
1.93179e-014
5.25104e-011
5.84671e-014
5.88731e-012
4.54636e-014
6.70317e-013
-2.01367e-014
6.93297e-014
2.60486e-014
1.99927e-016
2.05391e-015
-5.52835e-015
3.4639e-014
6.53405e-015
3.38202e-014
4.0289e-016
7.31359e-015
-8.30065e-016
1.3517e-014
1.49282e-014
6.07014e-014
1.24319e-014
1.65978e-014
-3.82463e-015
-9.312e-015
-1.31757e-014
-4.92384e-014
1.41814e-016
5.80785e-014
3.74397e-015
8.09075e-015
-1.37113e-014
-1.03216e-016
4.63629e-013
-5.47826e-015
1.03784e-012
-3.74006e-015
3.73568e-012
2.08097e-014
8.71303e-013
1.53011e-014
-9.32587e-015
-3.3043e-014
-2.07079e-012
-4.51826e-014
2.93987e-013
-1.95529e-014
-3.76632e-012
3.67284e-014
5.73763e-013
2.68622e-014
-1.12443e-012
1.65706e-013
1.04494e-012
2.46326e-012
-8.34e-013
5.25465e-011
-8.54872e-013
6.32773e-010
3.27738e-013
1.06378e-008
1.27232e-012
1.08896e-007
-2.61569e-013
1.41408e-006
-1.84741e-013
1.20352e-005
2.17959e-012
0.000116793
8.14904e-013
0.000801442
5.9508e-014
0.00548845
-1.10711e-012
0.0285472
-4.70735e-014
0.119702
-2.13163e-013
0.366913
2.02505e-013
0.824883
-7.77156e-014
1.45544
1.53033e-012
1.96122
9.21929e-013
2.10818
2.67819e-012
1.99048
2.42384e-012
1.88374
3.82094e-012
1.78783
3.71936e-012
1.56544
3.60356e-012
0.864251
2.55995e-012
0.122351
4.61797e-013
0.0191832
7.68829e-014
0.00301995
1.67644e-014
0.000471227
-7.38021e-014
7.29243e-005
3.32512e-014
1.08443e-005
6.52534e-014
1.54751e-006
-7.13318e-014
2.12203e-007
-2.8394e-014
2.76841e-008
-1.6348e-014
3.52574e-009
3.77753e-014
4.24153e-010
-2.20379e-014
5.08154e-011
4.16889e-014
5.69656e-012
4.71706e-014
6.48225e-013
-3.5541e-014
6.98113e-014
3.59712e-014
5.12611e-015
7.03604e-015
-5.2664e-015
-3.55271e-015
1.95525e-015
6.52672e-014
-3.33284e-015
1.14631e-014
-1.01026e-015
-1.7486e-015
1.22901e-014
9.23012e-014
6.92415e-015
1.02973e-014
-2.23606e-015
3.8719e-015
-8.25815e-015
-6.29635e-014
-7.70217e-016
6.49758e-014
-1.7911e-016
-4.30211e-016
-3.27377e-014
-1.48579e-015
1.30917e-012
1.11976e-015
2.11386e-013
1.05818e-016
4.49729e-012
2.18584e-014
1.57918e-012
1.36618e-014
-5.84865e-013
-3.8242e-014
-2.74181e-012
-4.56492e-014
2.18936e-013
-2.04723e-014
-2.72449e-012
3.57084e-014
7.64722e-013
2.93489e-014
-1.38556e-013
1.62769e-013
1.2701e-013
2.38505e-012
-1.41043e-012
5.08507e-011
-8.21565e-013
6.12331e-010
2.58016e-013
1.02941e-008
1.32783e-012
1.05377e-007
-1.7053e-013
1.36839e-006
-6.03517e-013
1.16463e-005
2.17204e-012
0.000113019
1.03961e-012
0.000775545
-1.59872e-014
0.0053111
-9.41469e-013
0.0276248
-3.76144e-013
0.115834
-1.77636e-013
0.355057
-1.52323e-013
0.798229
-3.02869e-013
1.40841
2.14562e-012
1.89785
1.47926e-012
2.04006
5.51204e-012
1.92617
5.11724e-012
1.82288
5.61973e-012
1.73006
4.78761e-012
1.51485
3.30092e-012
0.836325
7.57672e-013
0.118398
2.54824e-013
0.0185634
6.12843e-014
0.00292237
2.21212e-014
0.000456
-3.58047e-014
7.0568e-005
3.90799e-014
1.04939e-005
6.05627e-014
1.4975e-006
-6.09512e-014
2.05346e-007
-1.95954e-014
2.67896e-008
-2.27318e-014
3.41182e-009
4.60465e-014
4.10446e-010
-3.19467e-014
4.91714e-011
1.06443e-014
5.51184e-012
3.75533e-014
6.28223e-013
-1.52378e-014
6.55517e-014
4.31738e-014
-7.1991e-017
-4.48391e-014
-5.74779e-015
-3.0323e-014
5.59101e-015
1.10384e-013
1.04907e-015
-9.45077e-015
8.31583e-016
-1.52656e-014
1.33602e-014
9.78384e-014
1.00126e-014
1.84852e-014
-3.9916e-015
-1.6126e-014
-1.10372e-014
-2.61319e-014
-6.34909e-016
6.24778e-014
2.13328e-015
1.68615e-014
-3.32651e-014
1.17528e-015
8.39329e-013
-1.97932e-015
1.50102e-013
-4.60396e-015
3.12994e-012
1.4537e-014
1.18083e-012
1.08333e-014
-1.31983e-012
-3.21913e-014
-2.03482e-012
-4.14026e-014
1.82077e-013
-1.56368e-014
-2.05658e-012
3.62375e-014
1.67022e-012
2.43095e-014
4.8983e-013
1.54237e-013
-4.88498e-013
2.30727e-012
-1.72529e-012
4.92082e-011
-3.05089e-013
5.92544e-010
8.38885e-013
9.96144e-009
1.49436e-012
1.01972e-007
-4.60965e-013
1.32417e-006
-2.74891e-013
1.127e-005
1.87095e-012
0.000109367
6.07958e-013
0.000750486
-4.43645e-013
0.00513949
-1.18217e-012
0.0267322
-6.62581e-013
0.112091
9.63674e-014
0.343585
-7.30971e-013
0.772436
-3.90354e-013
1.3629
2.34324e-012
1.83652
2.43938e-012
1.97414
7.4496e-012
1.86393
7.23044e-012
1.76397
7.02793e-012
1.67416
5.44831e-012
1.46591
2.45837e-012
0.809302
-1.11128e-012
0.114572
-9.42302e-014
0.0179636
3.72757e-014
0.00282794
8.6875e-015
0.000441266
-1.66533e-016
6.82878e-005
2.32037e-014
1.01548e-005
2.80331e-014
1.44912e-006
-7.53564e-014
1.98711e-007
-3.46112e-014
2.5924e-008
-2.83107e-014
3.30158e-009
2.52853e-014
3.97186e-010
-4.57967e-015
4.75849e-011
-1.54876e-014
5.33423e-012
9.10383e-015
6.07422e-013
-8.74301e-016
6.44909e-014
3.20716e-014
5.37309e-015
-4.75453e-014
-3.44668e-015
-3.36675e-014
1.26743e-015
6.01463e-014
-3.08737e-015
2.99344e-014
-4.65556e-016
-2.11914e-014
1.01353e-014
9.31616e-014
4.72192e-015
2.45637e-015
-1.9288e-015
1.55292e-014
-6.07587e-015
-3.03091e-014
-1.17311e-015
7.29417e-014
-2.17274e-015
-6.77236e-015
-2.92544e-014
-6.85216e-016
-1.01252e-013
3.30205e-015
-3.83693e-013
-3.09128e-015
1.89893e-012
1.5106e-014
1.65556e-012
1.1843e-014
-1.6831e-013
-3.44169e-014
-1.8443e-012
-4.30038e-014
-4.05453e-013
-1.63593e-014
-1.95266e-012
3.40891e-014
1.49702e-012
2.55351e-014
1.05738e-012
1.49431e-013
-2.35056e-012
2.23442e-012
-2.40785e-012
4.76217e-011
2.40252e-013
5.73401e-010
1.35847e-012
9.63956e-009
1.72662e-012
9.86773e-008
-4.61853e-013
1.28138e-006
1.31006e-013
1.09058e-005
1.76836e-012
0.000105834
6.8745e-013
0.000726236
-1.11422e-012
0.00497342
-1.17284e-012
0.0258684
-6.51923e-013
0.108469
-1.58984e-013
0.332483
-9.61453e-013
0.747477
-4.25437e-013
1.31887
2.56573e-012
1.77718
3.1164e-012
1.91035
7.89724e-012
1.8037
8.57314e-012
1.70698
7.55984e-012
1.62006
5.22893e-012
1.41854
1.00986e-012
0.783152
-2.99261e-012
0.11087
-3.93463e-013
0.0173831
2.12885e-014
0.00273656
2.75613e-014
0.000427008
-2.3398e-014
6.60812e-005
1.65701e-014
9.82666e-006
2.18436e-014
1.40229e-006
-3.06977e-014
1.9229e-007
-2.9865e-014
2.50863e-008
-7.77156e-015
3.1949e-009
1.29063e-014
3.8435e-010
7.52176e-015
4.60453e-011
-1.6237e-014
5.1612e-012
1.85962e-015
5.87836e-013
3.0892e-014
6.0544e-014
2.93654e-014
8.29632e-016
-3.815e-014
-4.06359e-015
2.20657e-014
3.96189e-015
1.92346e-014
9.04441e-016
4.78784e-014
2.58994e-015
-2.70478e-014
1.22259e-014
8.49459e-014
8.1738e-015
-1.67366e-014
-3.00779e-015
4.92939e-014
-9.3211e-015
-5.48867e-014
-1.39862e-015
5.00849e-014
2.30285e-016
-1.70142e-014
-1.31978e-014
1.86396e-015
8.16236e-013
-2.92301e-016
7.11431e-013
-5.01856e-015
2.26752e-012
9.54965e-015
1.6751e-012
9.03617e-015
7.72715e-013
-2.89343e-014
-5.86198e-013
-3.8078e-014
-6.21725e-013
-1.09834e-014
-2.23377e-012
3.33483e-014
2.31903e-012
1.84488e-014
-3.77476e-014
1.43679e-013
-2.39053e-012
2.16481e-012
-1.5814e-012
4.60832e-011
5.18696e-013
5.54869e-010
1.17328e-012
9.32809e-009
1.62004e-012
9.54889e-008
-6.85674e-013
1.23998e-006
7.92255e-013
1.05534e-005
1.49125e-012
0.000102414
7.51843e-013
0.00070277
-1.17151e-012
0.00481272
-7.95364e-013
0.0250325
-7.99361e-013
0.104964
-5.68434e-014
0.321739
-1.2732e-012
0.723325
-6.16396e-013
1.27625
3.1013e-012
1.71976
3.45457e-012
1.84862
7.5735e-012
1.74542
8.87435e-012
1.65182
7.11609e-012
1.56771
4.13547e-012
1.3727
-1.14542e-012
0.757846
-5.23459e-012
0.107287
-6.22058e-013
0.0168214
2.48412e-014
0.00264814
3.16969e-014
0.00041321
-5.49005e-014
6.3946e-005
-2.52576e-015
9.50914e-006
9.96425e-015
1.35698e-006
-7.99361e-015
1.86077e-007
-5.61218e-014
2.42757e-008
-2.58127e-014
3.09166e-009
1.73472e-014
3.71932e-010
3.23075e-014
4.45595e-011
7.18869e-015
4.99565e-012
1.02141e-014
5.69034e-013
5.4734e-014
5.99995e-014
2.08999e-014
4.83663e-015
-8.82072e-014
-2.08037e-015
8.43769e-015
1.62197e-015
-1.11439e-014
-3.16761e-015
1.71946e-014
-4.72712e-016
-1.95538e-014
8.57149e-015
9.06497e-014
3.94303e-015
-1.31145e-014
-1.88564e-015
5.93969e-014
-4.98451e-015
-4.89608e-014
-1.85464e-015
4.07036e-014
-3.30855e-015
-8.46545e-015
3.09058e-014
1.73906e-016
1.32161e-012
5.26749e-015
1.32072e-012
-1.6636e-015
2.97096e-012
1.15559e-014
1.98774e-012
8.39086e-015
1.30829e-012
-3.37109e-014
-2.06057e-013
-3.9654e-014
-3.20188e-013
-1.17163e-014
-2.41274e-012
3.06925e-014
1.64002e-012
1.79474e-014
-4.54747e-013
1.39967e-013
-1.90026e-012
2.09754e-012
-1.26343e-012
4.45983e-011
9.4813e-013
5.36944e-010
1.08802e-012
9.02668e-009
8.82849e-013
9.24034e-008
-1.04405e-012
1.19991e-006
1.31228e-012
1.02124e-005
1.22391e-012
9.91047e-005
4.4853e-014
0.000680062
-1.0254e-012
0.00465721
-1.02185e-012
0.0242237
-1.20304e-012
0.101573
-8.88178e-016
0.311343
-1.08979e-012
0.699953
-6.59917e-013
1.23501
3.15326e-012
1.66419
3.58047e-012
1.78889
7.07345e-012
1.68902
8.41505e-012
1.59845
6.28597e-012
1.51706
2.71572e-012
1.32835
-3.40949e-012
0.733359
-7.35279e-012
0.103821
-1.00736e-012
0.0162779
1.39333e-014
0.00256257
3.85803e-014
0.000399858
-2.16493e-014
6.18798e-005
-2.19269e-014
9.20188e-006
5.66214e-015
1.31314e-006
6.46705e-015
1.80064e-007
-6.83897e-014
2.34913e-008
-1.90681e-014
2.99177e-009
2.4758e-014
3.59913e-010
3.78864e-014
4.31178e-011
-1.14908e-014
4.83349e-012
1.66533e-016
5.49705e-013
2.45082e-014
5.62122e-014
1.14075e-014
1.46931e-015
-1.01835e-013
-3.67978e-015
1.77636e-015
3.45947e-015
3.66235e-014
1.09179e-015
2.90185e-014
2.7851e-015
-3.40561e-014
1.18868e-014
9.92678e-014
7.03864e-015
-2.72699e-014
-3.50978e-015
1.06443e-014
-8.32819e-015
-4.27713e-014
-1.28413e-015
4.52555e-014
9.41087e-017
-6.82787e-015
4.03844e-014
1.99103e-015
1.42819e-012
-7.54605e-017
7.6561e-013
-6.24934e-015
3.30402e-012
7.45844e-015
1.45484e-012
7.25201e-015
6.11955e-013
-2.87704e-014
6.69687e-013
-3.69314e-014
-5.44453e-013
-7.31793e-015
-2.21867e-012
2.88129e-014
1.19549e-012
1.50427e-014
-4.18332e-013
1.36502e-013
-1.28253e-012
2.03048e-012
-1.95621e-012
4.31554e-011
1.48059e-012
5.19589e-010
3.9968e-013
8.735e-009
8.88178e-014
8.94177e-008
-7.25642e-013
1.16114e-006
1.67955e-012
9.88245e-006
9.32143e-013
9.59024e-005
-3.7037e-013
0.000658088
-5.59108e-013
0.00450673
-7.10099e-013
0.023441
-1.59872e-012
0.0982906
-2.70006e-013
0.301283
-9.25482e-013
0.677336
-9.13492e-013
1.19511
2.87703e-012
1.61041
3.22631e-012
1.73109
6.19149e-012
1.63444
8.0943e-012
1.5468
5.70732e-012
1.46804
1.74794e-012
1.28543
-4.86355e-012
0.709663
-8.79441e-012
0.100466
-1.25278e-012
0.0157519
-2.14551e-014
0.00247977
2.5896e-014
0.000386938
-1.35725e-014
5.98803e-005
-9.96425e-015
8.90455e-006
1.249e-014
1.27071e-006
1.49325e-014
1.74246e-007
-5.14588e-014
2.27323e-008
-5.20139e-014
2.89509e-009
3.2141e-014
3.48285e-010
7.99361e-014
4.17264e-011
7.27196e-015
4.67831e-012
-7.77156e-015
5.32207e-013
2.25653e-014
5.52254e-014
-1.13243e-014
4.4732e-015
-1.11577e-013
-1.27611e-015
-1.55431e-014
1.7035e-015
4.50334e-014
-2.12439e-015
-3.89966e-015
-1.3249e-016
-2.9865e-014
7.99989e-015
1.14533e-013
3.41025e-015
-2.46747e-014
-2.13696e-015
-7.67442e-015
-4.32814e-015
-3.57075e-014
-1.70979e-015
4.34375e-014
-2.11007e-015
4.6213e-015
6.72656e-014
1.19349e-015
1.17328e-012
7.24854e-015
1.35802e-012
-1.73776e-015
2.41407e-012
9.25128e-015
1.38378e-012
5.44096e-015
-4.24549e-013
-3.34073e-014
1.65823e-012
-3.77901e-014
-4.64517e-013
-8.57127e-015
-2.34568e-012
2.78822e-014
8.8729e-013
1.37763e-014
-9.01945e-013
1.31986e-013
-1.60849e-012
1.96754e-012
-1.75593e-012
4.17638e-011
1.48725e-012
5.02803e-010
1.92735e-013
8.45276e-009
2.84217e-013
8.65284e-008
-9.80549e-013
1.12362e-006
1.93889e-012
9.56313e-006
9.53015e-013
9.28036e-005
-1.44329e-013
0.000636823
-3.65485e-013
0.0043611
-4.21885e-013
0.0226835
-1.26876e-012
0.0951146
-4.93383e-013
0.291548
-9.3392e-013
0.65545
-8.40661e-013
1.15649
2.73337e-012
1.55838
2.95985e-012
1.67515
4.9436e-012
1.58163
7.95786e-012
1.49682
5.73441e-012
1.4206
1.42153e-012
1.24389
-5.20162e-012
0.686732
-9.01745e-012
0.0972198
-1.30357e-012
0.015243
-5.973e-014
0.00239964
2.19547e-014
0.000374435
-2.44249e-015
5.79455e-005
9.04832e-015
8.61682e-006
2.16771e-014
1.22965e-006
3.33067e-015
1.68616e-007
-3.19189e-015
2.19977e-008
-8.59868e-014
2.80155e-009
3.69427e-014
3.37029e-010
8.3572e-014
4.03761e-011
9.9365e-015
4.52648e-012
-2.18714e-014
5.13936e-013
4.44922e-014
5.21493e-014
-8.07687e-015
2.75995e-015
-8.79574e-014
-2.08557e-015
-2.80331e-015
2.42428e-015
6.7002e-014
5.02853e-016
-2.32037e-014
3.39681e-015
-1.02973e-014
1.01182e-014
1.02279e-013
5.33471e-015
3.8719e-015
-3.00454e-015
-1.41692e-014
-6.25259e-015
-2.35922e-014
-9.13549e-016
5.3138e-014
4.99817e-016
8.59035e-015
4.88221e-014
1.75901e-015
1.85008e-012
4.69676e-016
1.2168e-013
-7.89733e-015
1.91136e-012
5.89676e-015
1.50902e-012
7.44283e-015
4.92939e-013
-2.98659e-014
1.85096e-012
-3.37516e-014
2.75335e-013
-5.47479e-015
-2.45048e-012
2.64519e-014
4.05898e-013
1.2451e-014
-1.16707e-012
1.28704e-013
-2.23643e-012
1.90434e-012
-1.56453e-012
4.04117e-011
1.08713e-012
4.86552e-010
5.08926e-013
8.17963e-009
9.21485e-013
8.37325e-008
-1.3145e-012
1.08732e-006
1.66045e-012
9.25412e-006
6.43929e-013
8.98049e-005
5.59552e-014
0.000616246
-2.39808e-013
0.00422019
-2.21156e-013
0.0219506
-1.21636e-012
0.0920413
-2.42473e-013
0.282128
-1.14886e-012
0.634271
-9.42801e-013
1.11912
2.51354e-012
1.50802
2.62101e-012
1.62103
3.94285e-012
1.53053
8.10374e-012
1.44845
5.80636e-012
1.3747
1.46672e-012
1.2037
-4.80016e-012
0.664542
-8.02869e-012
0.0940784
-1.1518e-012
0.0147504
-5.68157e-014
0.00232211
4.4853e-014
0.000362337
-5.12368e-014
5.60731e-005
3.32789e-014
8.3384e-006
2.66731e-014
1.18991e-006
1.42941e-014
1.63167e-007
2.7478e-014
2.12869e-008
-8.20732e-014
2.71102e-009
1.83464e-014
3.2614e-010
6.78624e-014
3.9073e-011
1.57374e-014
4.38083e-012
-3.55826e-014
4.97821e-013
8.92897e-014
5.12635e-014
2.38698e-014
4.35632e-015
-9.89209e-014
-8.72132e-016
1.34059e-014
1.66121e-015
5.26246e-014
-1.10307e-015
-4.51306e-014
6.4922e-016
1.05471e-015
6.69105e-015
9.83241e-014
2.79746e-015
-1.2268e-014
-1.71369e-015
-2.98511e-014
-3.39312e-015
-2.65066e-014
-1.30993e-015
4.38677e-014
-8.96418e-016
1.28092e-014
2.55906e-014
1.95894e-015
9.51239e-013
7.41334e-015
-6.33271e-013
-2.4928e-015
7.88702e-013
7.60026e-015
2.2613e-012
5.32126e-015
1.04361e-012
-3.33995e-014
1.55609e-012
-3.59747e-014
8.72191e-013
-7.15747e-015
-3.25251e-012
2.4993e-014
8.79297e-014
1.10025e-014
-8.22453e-013
1.25414e-013
-1.85452e-012
1.84563e-012
-2.44871e-012
3.91088e-011
1.00364e-012
4.70833e-010
5.03597e-013
7.91533e-009
1.71152e-012
8.10269e-008
-1.15596e-012
1.05218e-006
9.56568e-013
8.9551e-006
5.71987e-013
8.69031e-005
7.14984e-014
0.000596334
-2.79332e-013
0.00408383
-4.34319e-013
0.0212413
-1.0818e-012
0.0890672
-4.59632e-013
0.273011
-1.09335e-012
0.613776
-6.60805e-013
1.08296
2.41185e-012
1.4593
2.20046e-012
1.56865
2.97584e-012
1.48107
7.74725e-012
1.40165
5.42599e-012
1.33028
1.14486e-012
1.1648
-4.72122e-012
0.643069
-7.33014e-012
0.0910385
-9.23261e-013
0.0142738
-5.973e-014
0.00224707
6.17562e-014
0.000350629
-6.39488e-014
5.42613e-005
3.88856e-014
8.06896e-006
3.20854e-014
1.15146e-006
2.2482e-015
1.57895e-007
4.54636e-014
2.05991e-008
-5.34572e-014
2.62343e-009
-1.91791e-014
3.156e-010
3.76643e-014
3.7809e-011
2.29261e-014
4.23909e-012
-1.90958e-014
4.80553e-013
1.05166e-013
4.8353e-014
1.6237e-014
3.89359e-015
-5.973e-014
-1.11087e-015
3.53051e-014
1.12063e-015
3.36675e-014
5.22369e-016
-3.37785e-014
3.95105e-015
1.99007e-014
8.91301e-015
8.51819e-014
3.45362e-015
-1.36557e-014
-2.48477e-015
-1.84575e-014
-4.65426e-015
-9.54792e-015
-8.06213e-016
4.43395e-014
3.65376e-016
5.66214e-015
3.48332e-015
1.42247e-016
-1.56319e-013
1.33313e-015
-1.47438e-012
-6.6119e-015
-2.30926e-014
5.64089e-015
2.2089e-012
6.86994e-015
1.21592e-012
-3.07801e-014
1.79945e-012
-3.36614e-014
7.56728e-013
-4.4565e-015
-2.81286e-012
2.41855e-014
2.39808e-014
1.03979e-014
-1.12799e-012
1.21954e-013
-1.70441e-012
1.78619e-012
-3.06244e-012
3.78439e-011
8.44658e-013
4.55616e-010
-1.11466e-013
7.65957e-009
2.40652e-012
7.84088e-008
-1.28741e-012
1.01818e-006
7.83373e-013
8.66575e-006
6.64802e-013
8.40951e-005
1.76303e-013
0.000577065
-5.22249e-013
0.00395187
-4.17888e-013
0.020555
-1.26432e-012
0.0861893
-2.10054e-013
0.26419
-1.21947e-012
0.593944
-6.40377e-013
1.04797
2.08011e-012
1.41214
1.75215e-012
1.51796
2.46003e-012
1.43322
6.87495e-012
1.35636
4.3392e-012
1.2873
-1.82077e-014
1.12717
-5.61295e-012
0.62229
-7.20124e-012
0.0880969
-9.38749e-013
0.0138126
-3.81084e-014
0.00217447
9.76441e-014
0.000339299
-4.29379e-014
5.2508e-005
2.13718e-014
7.80824e-006
5.03486e-014
1.11426e-006
-5.44009e-015
1.52793e-007
3.2252e-014
1.99335e-008
-1.84297e-014
2.53866e-009
-5.11258e-014
3.05404e-010
1.12688e-014
3.65888e-011
2.33147e-015
4.10275e-012
-2.04281e-014
4.65752e-013
8.12128e-014
4.7062e-014
1.67644e-014
4.13189e-015
-3.77476e-014
-7.80409e-016
3.49998e-014
1.26678e-015
2.09555e-014
1.13624e-016
-1.94844e-014
9.51496e-016
9.82547e-015
5.18596e-015
9.05664e-014
2.3937e-015
1.48492e-014
-9.26559e-016
-3.70259e-014
-2.63656e-015
1.51684e-014
-1.12215e-015
2.82829e-014
-8.88829e-016
-1.54876e-014
-9.312e-015
2.5392e-015
-1.98952e-013
7.6176e-015
-8.07354e-013
-8.86444e-016
-1.53655e-013
6.56896e-015
1.54898e-012
4.85636e-015
7.70051e-013
-3.30508e-014
1.52323e-012
-3.57626e-014
8.49987e-013
-5.84905e-015
-2.47358e-012
2.36226e-014
1.05516e-012
8.33968e-015
-4.84945e-013
1.1766e-013
-1.82343e-012
1.73135e-012
-3.14504e-012
3.66244e-011
4.69846e-013
4.40897e-010
-3.8014e-013
7.41207e-009
2.99361e-012
7.58752e-008
-1.26299e-012
9.85285e-007
6.34159e-013
8.38574e-006
8.07354e-013
8.13778e-005
3.05977e-013
0.000558419
-5.47118e-013
0.00382417
-1.64313e-013
0.0198908
-9.99645e-013
0.0834043
-2.33147e-013
0.255653
-1.16485e-012
0.574752
-6.78124e-013
1.01411
1.79412e-012
1.36651
1.40199e-012
1.46891
1.89138e-012
1.3869
5.38736e-012
1.31253
2.48168e-012
1.2457
-1.91269e-012
1.09075
-7.25253e-012
0.602183
-7.69473e-012
0.0852503
-9.08051e-013
0.0133663
-1.54321e-014
0.0021042
1.27259e-013
0.000328336
-2.19547e-014
5.08113e-005
2.14273e-014
7.55594e-006
5.17364e-014
1.07825e-006
-3.46112e-014
1.47856e-007
2.87548e-014
1.92894e-008
1.25733e-014
2.45663e-009
-6.69187e-014
2.95534e-010
-4.01346e-014
3.54054e-011
-1.77081e-014
3.96986e-012
5.52336e-015
4.49529e-013
6.31162e-014
4.4997e-014
3.99958e-014
4.44718e-015
-3.45834e-014
-1.00506e-015
1.92069e-014
4.6534e-016
-1.97065e-015
6.76108e-016
-1.77913e-014
4.06858e-015
2.05669e-014
7.78847e-015
5.5983e-014
2.42644e-015
2.11497e-014
-1.95807e-015
-2.17881e-014
-4.0187e-015
6.30052e-015
-1.1872e-015
2.50633e-014
-1.76074e-016
-3.70953e-014
-2.31759e-015
-8.42642e-016
-1.34204e-012
2.7413e-015
-8.21565e-013
-4.06793e-015
-4.68958e-013
6.06806e-015
1.05427e-012
6.21291e-015
2.9754e-013
-3.14583e-014
1.26832e-012
-3.34121e-014
7.30083e-013
-3.8719e-015
-2.29239e-012
2.15635e-014
1.11822e-012
8.66755e-015
2.85993e-013
1.14565e-013
-2.52687e-012
1.67468e-012
-3.31646e-012
3.54405e-011
5.90639e-013
4.26649e-010
-6.21725e-014
7.17257e-009
3.21521e-012
7.34235e-008
-1.23901e-012
9.53448e-007
8.31779e-013
8.11478e-006
7.58504e-013
7.87483e-005
3.46834e-013
0.000540375
-6.9722e-013
0.00370061
-1.19016e-013
0.0192481
-1.10179e-012
0.0807093
-3.97016e-013
0.247393
-8.94396e-013
0.556181
-5.67546e-013
0.981337
1.30607e-012
1.32236
1.23856e-012
1.42145
1.71307e-012
1.34209
3.67806e-012
1.27012
6.9178e-013
1.20545
-3.55294e-012
1.0555
-7.9573e-012
0.582725
-7.32525e-012
0.0824957
-7.24087e-013
0.0129344
9.82547e-015
0.00203621
1.56736e-013
0.000317726
-3.47777e-014
4.91695e-005
-1.42386e-014
7.31179e-006
4.77396e-014
1.04341e-006
-4.03566e-014
1.43079e-007
3.01703e-014
1.86661e-008
1.77081e-014
2.37725e-009
-7.17482e-014
2.85986e-010
-4.82392e-014
3.42626e-011
-2.61735e-014
3.84219e-012
2.43972e-014
4.36062e-013
5.19029e-014
4.3558e-014
5.06262e-014
3.86345e-015
-4.98768e-014
-6.83264e-016
2.46192e-014
1.17593e-015
7.85483e-015
9.02273e-016
-6.46705e-015
1.42985e-015
-5.88418e-015
4.30775e-015
4.47697e-014
1.77007e-015
2.67286e-014
-5.07623e-016
-2.64511e-014
-2.58842e-015
1.50435e-014
-1.35373e-015
5.15421e-014
-8.55219e-016
-2.66592e-014
1.58207e-015
3.31376e-015
-5.64881e-013
7.18306e-015
-1.39178e-012
-9.92696e-016
-2.25597e-013
6.21551e-015
1.29052e-012
4.98343e-015
7.37188e-013
-3.16548e-014
9.24594e-013
-3.45167e-014
-2.39808e-014
-3.71361e-015
-1.57208e-012
2.13748e-014
1.54454e-012
4.65947e-015
-4.69846e-013
1.09532e-013
-2.41762e-012
1.62368e-012
-3.39373e-012
3.42988e-011
1.00098e-012
4.12865e-010
1.67866e-013
6.94081e-009
3.69926e-012
7.10511e-008
-1.32427e-012
9.2264e-007
1.05072e-012
7.85257e-006
7.64278e-013
7.62038e-005
4.62297e-013
0.000522915
-6.64802e-013
0.00358103
-8.88178e-014
0.0186261
-1.02496e-012
0.0781015
-1.05249e-013
0.239399
-8.39329e-013
0.538209
-5.02709e-013
0.949628
7.93143e-013
1.27963
1.27698e-012
1.37552
1.44729e-012
1.29873
2.72915e-012
1.22908
-4.20775e-013
1.1665
-3.7943e-012
1.0214
-6.74505e-012
0.563896
-5.38036e-012
0.0798301
-6.5109e-013
0.0125164
3.24185e-014
0.00197042
1.55986e-013
0.00030746
-2.01228e-014
4.75807e-005
-3.8386e-014
7.07553e-006
6.86395e-014
1.0097e-006
-4.15501e-014
1.38455e-007
5.96745e-015
1.8063e-008
2.22877e-014
2.30044e-009
-9.40636e-014
2.76745e-010
-3.66929e-014
3.3155e-011
-2.08167e-015
3.71787e-012
3.53884e-014
4.20712e-013
3.75533e-014
4.18084e-014
4.53526e-014
4.27024e-015
-5.13756e-014
-1.09765e-015
2.35922e-014
4.31512e-016
3.9746e-014
8.59339e-016
-2.27596e-015
3.89706e-015
5.38458e-015
7.16137e-015
3.87468e-014
1.8464e-015
5.2458e-015
-1.77722e-015
-2.25653e-014
-3.71361e-015
3.76921e-014
-1.6456e-015
5.53169e-014
-1.89302e-016
-1.54043e-014
-1.65146e-015
-7.48533e-016
-4.75175e-013
4.06706e-015
-1.55609e-012
-2.57953e-015
-5.43565e-013
6.50608e-015
1.72662e-012
5.86597e-015
3.28626e-014
-3.09384e-014
3.45501e-013
-3.24627e-014
-4.11227e-013
-2.86229e-015
-1.52856e-012
1.91973e-014
2.16893e-012
5.56196e-015
-2.83329e-013
1.07574e-013
-2.18936e-012