/*--------------------------------*- C++ -*----------------------------------*\
| =========                 |                                                 |
| \\      /  F ield         | OpenFOAM: The Open Source CFD Toolbox           |
|  \\    /   O peration     | Version:  5.x                                   |
|   \\  /    A nd           | Web:      www.OpenFOAM.org                      |
|    \\/     M anipulation  |                                                 |
\*---------------------------------------------------------------------------*/
/*   Windows 32 and 64 bit porting by blueCAPE: http://www.bluecape.com.pt   *\
|  Based on Windows porting (2.0.x v4) by Symscape: http://www.symscape.com   |
\*---------------------------------------------------------------------------*/
FoamFile
{
    version     2.0;
    format      ascii;
    class       volVectorField;
    location    "0.001";
    object      U;
}
// * * * * * * * * * * * * * * * * * * * * * * * * * * * * * * * * * * * * * //

dimensions      [0 1 -1 0 0 0 0];

internalField   nonuniform List<vector> 
10000
(
(-5.18601e-013 -1.1434e-012 0)
(-5.35905e-013 5.88516e-012 0)
(2.72012e-015 -6.97349e-013 0)
(2.73515e-013 2.0773e-014 0)
(3.23895e-012 -3.70955e-012 0)
(-9.3845e-013 -1.20455e-012 0)
(-2.73489e-012 2.29057e-012 0)
(-2.71482e-012 -6.98661e-013 0)
(-2.70395e-013 2.87791e-012 0)
(3.35867e-012 1.5776e-012 0)
(-1.12868e-013 2.58983e-012 0)
(2.2291e-011 3.93226e-013 0)
(2.96145e-010 3.53624e-013 0)
(6.48905e-009 -3.18756e-012 0)
(7.44133e-008 -1.39594e-012 0)
(1.28542e-006 3.86873e-013 0)
(1.2495e-005 1.22879e-012 0)
(0.000166283 1.60438e-012 0)
(0.00133983 -1.31813e-012 0)
(0.0132404 3.0088e-012 0)
(0.0856657 3.35486e-012 0)
(0.582147 -1.14157e-012 0)
(2.59989 -5.54882e-013 0)
(10.3302 -2.61819e-012 0)
(29.1173 -1.32857e-013 0)
(68.3807 1.72407e-012 0)
(127.63 3.23296e-012 0)
(183.26 -1.16438e-011 0)
(231.962 -3.88488e-012 0)
(278.832 1.04184e-012 0)
(315.564 -3.78908e-012 0)
(312.283 -1.56403e-011 0)
(244.243 -2.35318e-011 0)
(104.245 -1.54438e-012 0)
(17.4294 -2.93383e-013 0)
(2.69253 3.93476e-012 0)
(0.416589 -7.31047e-014 0)
(0.0648669 1.68888e-013 0)
(0.0097249 -2.77002e-013 0)
(0.00139982 1.30306e-012 0)
(0.000194031 3.76589e-013 0)
(2.54653e-005 2.97235e-012 0)
(3.28252e-006 -1.34763e-012 0)
(3.95927e-007 -4.84801e-012 0)
(4.80717e-008 -2.42949e-012 0)
(5.38769e-009 2.68596e-012 0)
(6.23186e-010 -1.56317e-012 0)
(6.57818e-011 5.01765e-013 0)
(6.58774e-012 -1.97084e-012 0)
(-4.46372e-012 5.01078e-012 0)
(-1.07975e-012 8.98609e-013 0)
(4.23213e-012 2.05099e-012 0)
(-5.33276e-012 -2.69995e-012 0)
(5.04267e-012 -2.77307e-012 0)
(8.57031e-012 3.54343e-012 0)
(2.72618e-012 -9.03507e-012 0)
(-7.35991e-012 -4.34239e-013 0)
(-5.45142e-012 -2.17435e-012 0)
(4.99093e-012 3.87214e-013 0)
(-1.20688e-012 -2.81355e-012 0)
(-1.66642e-013 -3.07748e-012 0)
(-5.15589e-013 -2.47347e-012 0)
(-2.40118e-013 -1.41511e-012 0)
(1.22323e-013 6.65046e-012 0)
(3.20088e-012 2.79793e-012 0)
(-6.62809e-013 -1.59131e-012 0)
(-2.73162e-012 -3.74181e-012 0)
(-2.68216e-012 -1.67716e-013 0)
(-1.27577e-013 -1.70472e-012 0)
(3.36125e-012 4.90204e-013 0)
(-2.24964e-013 9.04265e-013 0)
(2.21729e-011 6.58994e-013 0)
(2.96e-010 2.40338e-012 0)
(6.48893e-009 -4.59523e-013 0)
(7.44134e-008 -6.71149e-013 0)
(1.28542e-006 7.21711e-013 0)
(1.2495e-005 1.17906e-012 0)
(0.000166283 4.44794e-013 0)
(0.00133983 -1.07582e-012 0)
(0.0132404 -2.50126e-014 0)
(0.0856657 -2.14769e-012 0)
(0.582147 -1.1194e-012 0)
(2.59989 -9.2828e-013 0)
(10.3302 -5.33396e-013 0)
(29.1173 -3.46341e-012 0)
(68.3807 -3.43827e-014 0)
(127.63 1.57948e-012 0)
(183.26 -3.77614e-011 0)
(231.962 -1.56354e-011 0)
(278.832 7.22973e-013 0)
(315.564 -8.02653e-012 0)
(312.283 -2.83555e-011 0)
(244.243 -3.87821e-011 0)
(104.245 -2.75492e-013 0)
(17.4294 -2.61141e-013 0)
(2.69253 -1.78984e-012 0)
(0.416589 -5.8304e-013 0)
(0.0648669 -4.13376e-012 0)
(0.0097249 3.86453e-012 0)
(0.00139982 6.8154e-014 0)
(0.000194031 1.39153e-012 0)
(2.54653e-005 -6.1337e-013 0)
(3.28252e-006 3.99017e-012 0)
(3.95927e-007 2.79665e-012 0)
(4.80726e-008 1.37251e-012 0)
(5.3878e-009 -1.70654e-012 0)
(6.22833e-010 9.62395e-013 0)
(6.58622e-011 -3.3026e-012 0)
(7.26953e-012 -3.33007e-013 0)
(-4.15982e-012 -8.07905e-012 0)
(-1.45425e-012 -1.80658e-012 0)
(3.63273e-012 6.81769e-013 0)
(-6.01687e-012 -1.22489e-012 0)
(6.05499e-012 1.26832e-012 0)
(7.34715e-012 -1.88288e-012 0)
(2.15923e-012 5.56355e-012 0)
(-6.21258e-012 -2.2411e-012 0)
(-5.31517e-012 4.70713e-012 0)
(4.91891e-012 1.8327e-012 0)
(-1.85466e-012 4.5027e-012 0)
(-4.78344e-013 -1.15327e-012 0)
(-4.56251e-013 9.37882e-012 0)
(3.5668e-013 1.51888e-012 0)
(4.42806e-013 7.04116e-012 0)
(2.88605e-012 2.1439e-013 0)
(-1.22966e-012 -1.01317e-012 0)
(-2.63916e-012 -7.78116e-014 0)
(-2.61431e-012 -6.71585e-012 0)
(-2.73174e-013 -3.1103e-013 0)
(3.47734e-012 8.21059e-013 0)
(-6.94377e-014 2.98307e-012 0)
(2.23629e-011 5.09066e-013 0)
(2.9606e-010 8.42451e-013 0)
(6.48885e-009 4.53726e-013 0)
(7.44134e-008 2.7967e-013 0)
(1.28542e-006 -3.04305e-013 0)
(1.2495e-005 2.73953e-012 0)
(0.000166283 3.35594e-012 0)
(0.00133983 -2.70009e-012 0)
(0.0132404 -3.47735e-013 0)
(0.0856657 -1.1497e-012 0)
(0.582147 -2.53322e-012 0)
(2.59989 2.28156e-013 0)
(10.3302 1.0137e-012 0)
(29.1173 7.8058e-014 0)
(68.3807 -1.89995e-012 0)
(127.63 1.07203e-012 0)
(183.26 -4.93635e-011 0)
(231.962 -2.88177e-011 0)
(278.832 -1.08683e-011 0)
(315.564 -1.18372e-011 0)
(312.283 -1.62164e-011 0)
(244.243 -1.03192e-011 0)
(104.245 5.83141e-012 0)
(17.4294 2.52066e-012 0)
(2.69253 2.83941e-012 0)
(0.416589 9.69679e-013 0)
(0.0648669 1.20029e-012 0)
(0.0097249 3.3679e-012 0)
(0.00139982 3.10388e-013 0)
(0.000194031 -1.38603e-012 0)
(2.54653e-005 3.84782e-012 0)
(3.28252e-006 9.4418e-013 0)
(3.95927e-007 -3.45637e-012 0)
(4.80712e-008 1.47239e-012 0)
(5.3877e-009 2.01529e-012 0)
(6.23056e-010 -6.98881e-013 0)
(6.55974e-011 -3.7444e-012 0)
(5.76332e-012 -1.33354e-012 0)
(-4.61641e-012 5.59474e-012 0)
(1.93441e-013 2.13942e-012 0)
(4.30373e-012 4.11981e-012 0)
(-5.23078e-012 1.4845e-012 0)
(4.91085e-012 2.8815e-014 0)
(9.30764e-012 1.6305e-012 0)
(2.54514e-012 -5.44971e-012 0)
(-7.46395e-012 -3.19335e-012 0)
(-4.70727e-012 3.67637e-012 0)
(5.00191e-012 1.10778e-012 0)
(-6.8557e-013 -3.46373e-012 0)
(1.36306e-013 -2.11909e-012 0)
(-4.29504e-013 1.3786e-012 0)
(-3.02532e-013 2.72251e-012 0)
(8.28948e-014 1.52917e-012 0)
(2.8648e-012 -1.81709e-012 0)
(-7.05017e-013 -1.85001e-012 0)
(-2.98931e-012 -3.06333e-012 0)
(-2.69249e-012 -8.86243e-012 0)
(2.16795e-013 -8.25643e-013 0)
(3.54743e-012 -3.75195e-012 0)
(-2.44816e-013 1.45456e-012 0)
(2.20833e-011 -8.55604e-013 0)
(2.95988e-010 -6.72179e-013 0)
(6.48891e-009 8.17474e-014 0)
(7.44134e-008 2.00826e-012 0)
(1.28542e-006 2.11602e-013 0)
(1.2495e-005 1.62193e-012 0)
(0.000166283 1.73388e-012 0)
(0.00133983 8.92791e-013 0)
(0.0132404 1.3086e-012 0)
(0.0856657 -2.14943e-012 0)
(0.582147 -2.94291e-012 0)
(2.59989 -1.2648e-012 0)
(10.3302 1.3254e-012 0)
(29.1173 -2.72082e-013 0)
(68.3807 1.09317e-012 0)
(127.63 -1.84531e-012 0)
(183.26 -4.54066e-011 0)
(231.962 -3.52333e-011 0)
(278.832 -1.04422e-011 0)
(315.564 -2.79725e-012 0)
(312.283 1.23791e-011 0)
(244.243 3.68459e-011 0)
(104.245 1.60754e-011 0)
(17.4294 2.7309e-012 0)
(2.69253 -1.07567e-012 0)
(0.416589 4.71287e-013 0)
(0.0648669 -1.65561e-012 0)
(0.0097249 1.01313e-012 0)
(0.00139982 4.13405e-013 0)
(0.000194031 -8.50534e-013 0)
(2.54653e-005 3.09941e-012 0)
(3.28252e-006 3.21433e-012 0)
(3.95927e-007 4.3858e-012 0)
(4.80731e-008 3.03313e-012 0)
(5.38745e-009 3.37765e-012 0)
(6.22218e-010 1.95959e-013 0)
(6.57928e-011 -2.31838e-012 0)
(8.37561e-012 1.12298e-012 0)
(-3.65173e-012 -2.48835e-012 0)
(-1.6528e-012 -2.91167e-012 0)
(3.57833e-012 -1.00056e-012 0)
(-6.68149e-012 4.13232e-012 0)
(6.14769e-012 2.47274e-012 0)
(6.53935e-012 -1.43889e-012 0)
(1.39614e-012 2.88758e-013 0)
(-4.68658e-012 1.84666e-012 0)
(-4.52334e-012 3.65627e-012 0)
(3.54864e-012 2.99454e-012 0)
(-2.66362e-012 6.93431e-013 0)
(-3.29684e-013 1.0181e-012 0)
(-2.74224e-013 5.23386e-012 0)
(3.41733e-013 5.39274e-012 0)
(2.39538e-013 2.96084e-012 0)
(2.75812e-012 1.01151e-012 0)
(-1.2452e-012 -5.78527e-012 0)
(-2.96047e-012 5.64228e-013 0)
(-2.50488e-012 -5.49304e-012 0)
(-2.4679e-014 3.80442e-012 0)
(3.57413e-012 -1.45326e-012 0)
(4.59377e-014 5.2414e-012 0)
(2.22574e-011 2.87998e-013 0)
(2.96106e-010 2.94077e-013 0)
(6.48898e-009 4.08318e-012 0)
(7.44134e-008 3.29097e-012 0)
(1.28542e-006 -4.21013e-012 0)
(1.2495e-005 7.11424e-013 0)
(0.000166283 6.75128e-012 0)
(0.00133983 8.43795e-013 0)
(0.0132404 -2.83252e-013 0)
(0.0856657 -3.9481e-012 0)
(0.582147 -1.14341e-012 0)
(2.59989 -2.14599e-013 0)
(10.3302 2.62873e-012 0)
(29.1173 2.99115e-012 0)
(68.3807 4.60186e-012 0)
(127.63 -6.40737e-013 0)
(183.26 -2.35994e-011 0)
(231.962 -2.08986e-011 0)
(278.832 5.52169e-012 0)
(315.564 1.87631e-011 0)
(312.283 4.40623e-011 0)
(244.243 6.33803e-011 0)
(104.245 2.22034e-011 0)
(17.4294 2.62448e-012 0)
(2.69253 2.37793e-012 0)
(0.416589 -5.39099e-013 0)
(0.0648669 -1.42628e-012 0)
(0.0097249 2.59519e-012 0)
(0.00139982 -3.0661e-012 0)
(0.000194031 8.37695e-013 0)
(2.54653e-005 3.83642e-012 0)
(3.28252e-006 -1.29531e-012 0)
(3.95927e-007 9.6892e-013 0)
(4.80712e-008 2.8064e-012 0)
(5.3874e-009 1.42329e-012 0)
(6.22288e-010 5.48203e-013 0)
(6.57251e-011 1.26373e-012 0)
(5.78118e-012 -2.25161e-012 0)
(-5.04683e-012 3.1532e-012 0)
(3.44698e-013 4.33888e-012 0)
(5.27023e-012 8.94941e-013 0)
(-4.79758e-012 3.92544e-012 0)
(4.04952e-012 1.02776e-012 0)
(8.97588e-012 -1.14925e-012 0)
(3.06039e-012 -3.05571e-012 0)
(-6.84458e-012 -3.42065e-012 0)
(-4.55096e-012 5.00044e-012 0)
(4.45852e-012 1.52358e-012 0)
(-1.15358e-012 1.24588e-013 0)
(2.63843e-013 1.07531e-012 0)
(-2.79644e-013 3.6317e-012 0)
(-3.74197e-013 9.09538e-012 0)
(-5.3193e-014 -1.40947e-012 0)
(2.52707e-012 -2.32403e-013 0)
(-7.6465e-013 -8.37596e-013 0)
(-2.98198e-012 1.32394e-012 0)
(-2.52817e-012 -9.08086e-012 0)
(3.703e-013 7.24488e-013 0)
(3.62381e-012 -3.49914e-012 0)
(-1.43784e-013 5.91743e-012 0)
(2.18343e-011 -1.55884e-012 0)
(2.96182e-010 -2.0372e-012 0)
(6.48907e-009 1.93174e-012 0)
(7.44129e-008 3.7695e-012 0)
(1.28542e-006 -9.34292e-013 0)
(1.2495e-005 9.43164e-013 0)
(0.000166283 6.23895e-012 0)
(0.00133983 1.28489e-012 0)
(0.0132404 7.56159e-013 0)
(0.0856657 -3.63977e-012 0)
(0.582147 -1.87939e-012 0)
(2.59989 1.57589e-013 0)
(10.3302 7.50256e-013 0)
(29.1173 1.63101e-013 0)
(68.3807 7.04211e-012 0)
(127.63 3.78493e-012 0)
(183.26 7.16752e-012 0)
(231.962 7.99773e-012 0)
(278.832 3.09204e-011 0)
(315.564 4.3541e-011 0)
(312.283 5.91826e-011 0)
(244.243 6.43271e-011 0)
(104.245 1.89739e-011 0)
(17.4294 3.59395e-012 0)
(2.69253 1.73655e-012 0)
(0.416589 -3.09406e-012 0)
(0.0648669 8.45762e-013 0)
(0.0097249 2.31188e-012 0)
(0.00139982 -3.64251e-012 0)
(0.000194031 -1.3104e-012 0)
(2.54653e-005 -6.75756e-013 0)
(3.28252e-006 1.84846e-012 0)
(3.95928e-007 8.68289e-013 0)
(4.80731e-008 3.69268e-012 0)
(5.38715e-009 3.59823e-012 0)
(6.22133e-010 -2.81416e-012 0)
(6.54226e-011 1.84678e-012 0)
(8.66349e-012 2.2577e-012 0)
(-2.87704e-012 1.40197e-012 0)
(-1.81798e-012 -4.55767e-013 0)
(3.51164e-012 2.29728e-013 0)
(-6.57699e-012 -1.79991e-012 0)
(5.38469e-012 6.24124e-012 0)
(5.9359e-012 3.02601e-012 0)
(1.07931e-012 1.50611e-012 0)
(-3.46208e-012 -3.14411e-012 0)
(-3.77566e-012 4.44518e-012 0)
(2.7683e-012 -4.40809e-013 0)
(-2.79496e-012 -1.73129e-012 0)
(-2.17127e-013 9.69006e-013 0)
(1.08312e-014 4.01964e-013 0)
(1.26599e-013 7.60174e-012 0)
(-1.06883e-013 4.66328e-012 0)
(2.76946e-012 1.32211e-013 0)
(-1.15374e-012 -8.07397e-012 0)
(-3.27684e-012 2.54163e-013 0)
(-2.5384e-012 -8.8096e-012 0)
(2.14768e-013 1.77827e-012 0)
(3.79804e-012 -1.71144e-012 0)
(1.0047e-013 7.74745e-014 0)
(2.19105e-011 -2.59578e-012 0)
(2.96269e-010 -1.96809e-012 0)
(6.48926e-009 1.77186e-013 0)
(7.44132e-008 3.35352e-012 0)
(1.28542e-006 -6.39536e-013 0)
(1.2495e-005 -2.11012e-012 0)
(0.000166283 7.67583e-012 0)
(0.00133983 4.33662e-012 0)
(0.0132404 -3.9677e-013 0)
(0.0856657 -3.65832e-012 0)
(0.582147 1.30797e-012 0)
(2.59989 -1.81157e-012 0)
(10.3302 9.09365e-013 0)
(29.1173 -6.18555e-013 0)
(68.3807 8.46448e-012 0)
(127.63 6.09414e-012 0)
(183.26 2.90506e-011 0)
(231.962 3.47164e-011 0)
(278.832 5.55362e-011 0)
(315.564 6.18861e-011 0)
(312.283 5.97209e-011 0)
(244.243 3.56443e-011 0)
(104.245 1.11699e-011 0)
(17.4294 2.21723e-012 0)
(2.69253 -1.09622e-013 0)
(0.416589 -2.63023e-012 0)
(0.0648669 1.82212e-012 0)
(0.0097249 3.59157e-012 0)
(0.00139982 -3.19787e-012 0)
(0.000194031 -1.02923e-012 0)
(2.54653e-005 -6.27965e-013 0)
(3.28252e-006 2.40844e-012 0)
(3.95927e-007 -2.79421e-012 0)
(4.80715e-008 7.15758e-013 0)
(5.38662e-009 2.06797e-012 0)
(6.22061e-010 -1.14928e-012 0)
(6.63302e-011 2.71282e-012 0)
(5.90118e-012 -1.04631e-012 0)
(-5.38547e-012 -1.73163e-012 0)
(1.29337e-013 9.17937e-012 0)
(5.08684e-012 1.28198e-012 0)
(-4.04171e-012 1.42594e-012 0)
(4.70638e-012 7.24348e-012 0)
(8.14746e-012 -1.14619e-012 0)
(2.10619e-012 -1.0074e-012 0)
(-6.24672e-012 -5.89328e-012 0)
(-4.08913e-012 4.53974e-012 0)
(3.41968e-012 5.23802e-013 0)
(-1.46979e-012 -4.04714e-012 0)
(2.28108e-013 3.96709e-012 0)
(-6.88894e-014 4.69238e-013 0)
(-2.13531e-013 1.01064e-011 0)
(-3.13532e-013 2.76679e-012 0)
(2.07548e-012 -2.51639e-012 0)
(-7.67003e-013 -4.25973e-012 0)
(-3.04742e-012 9.31204e-013 0)
(-2.45329e-012 -4.93865e-012 0)
(6.52466e-013 2.63211e-012 0)
(3.54899e-012 7.14673e-013 0)
(-1.68601e-013 7.37366e-013 0)
(2.17496e-011 -4.78402e-012 0)
(2.96306e-010 -2.87402e-012 0)
(6.48933e-009 1.45834e-012 0)
(7.44129e-008 4.58091e-012 0)
(1.28542e-006 -6.80056e-013 0)
(1.2495e-005 -1.36817e-012 0)
(0.000166283 6.06712e-012 0)
(0.00133983 2.14171e-012 0)
(0.0132404 2.26075e-013 0)
(0.0856657 -3.0746e-012 0)
(0.582147 -4.17497e-012 0)
(2.59989 5.5049e-013 0)
(10.3302 -2.19424e-012 0)
(29.1173 -2.07067e-012 0)
(68.3807 1.18364e-011 0)
(127.63 1.17978e-011 0)
(183.26 4.68428e-011 0)
(231.962 5.75709e-011 0)
(278.832 7.41073e-011 0)
(315.564 7.45219e-011 0)
(312.283 4.89805e-011 0)
(244.243 -4.76556e-012 0)
(104.245 3.30931e-012 0)
(17.4294 2.65572e-012 0)
(2.69253 1.58912e-012 0)
(0.416589 -8.1159e-013 0)
(0.0648669 1.81507e-012 0)
(0.0097249 1.55176e-012 0)
(0.00139982 -2.59388e-012 0)
(0.000194031 -1.08464e-012 0)
(2.54653e-005 -1.88912e-012 0)
(3.28252e-006 1.65573e-012 0)
(3.95927e-007 -2.83613e-013 0)
(4.80736e-008 5.5103e-013 0)
(5.38698e-009 1.39355e-012 0)
(6.22335e-010 -7.61662e-013 0)
(6.54276e-011 1.69482e-012 0)
(7.96205e-012 -5.09605e-012 0)
(-1.73459e-012 -2.44622e-012 0)
(-1.42133e-012 3.87224e-012 0)
(2.62823e-012 -2.32621e-012 0)
(-5.67475e-012 -3.04257e-012 0)
(5.0082e-012 5.59046e-012 0)
(4.83599e-012 3.07094e-012 0)
(4.28552e-013 -1.04884e-012 0)
(-2.68783e-012 1.58873e-012 0)
(-2.92116e-012 5.48726e-012 0)
(1.46986e-012 1.55648e-012 0)
(-3.44876e-012 -1.18341e-012 0)
(-3.04261e-013 -7.91709e-014 0)
(2.20229e-013 1.11762e-013 0)
(1.8007e-013 4.00328e-012 0)
(-5.49016e-013 2.02086e-012 0)
(2.51255e-012 -3.27054e-012 0)
(-9.97721e-013 -5.14643e-012 0)
(-3.31364e-012 -2.76682e-013 0)
(-2.46322e-012 -5.00341e-012 0)
(4.44635e-013 4.52777e-012 0)
(3.71085e-012 2.35505e-012 0)
(-1.18801e-013 -3.56628e-012 0)
(2.17406e-011 -5.2682e-012 0)
(2.9654e-010 1.19226e-012 0)
(6.48958e-009 3.51611e-012 0)
(7.44131e-008 4.24134e-012 0)
(1.28542e-006 -2.00974e-012 0)
(1.2495e-005 -5.21198e-013 0)
(0.000166283 5.70654e-012 0)
(0.00133983 2.00226e-012 0)
(0.0132404 -2.92346e-012 0)
(0.0856657 -5.59276e-012 0)
(0.582147 -4.08214e-013 0)
(2.59989 -1.5166e-013 0)
(10.3302 -3.09918e-012 0)
(29.1173 -9.4005e-013 0)
(68.3807 1.09963e-011 0)
(127.63 1.65967e-011 0)
(183.26 5.34733e-011 0)
(231.962 7.21502e-011 0)
(278.832 8.57412e-011 0)
(315.564 7.79321e-011 0)
(312.283 2.99364e-011 0)
(244.243 -4.1066e-011 0)
(104.245 -9.3167e-012 0)
(17.4294 4.40853e-013 0)
(2.69253 -6.75115e-013 0)
(0.416589 9.80744e-013 0)
(0.0648669 8.49182e-014 0)
(0.0097249 1.22662e-012 0)
(0.00139982 -3.90093e-012 0)
(0.000194031 -1.94961e-012 0)
(2.54653e-005 -6.45915e-013 0)
(3.28252e-006 1.29006e-012 0)
(3.95927e-007 -2.64303e-013 0)
(4.80718e-008 -2.27919e-012 0)
(5.38649e-009 -7.40411e-014 0)
(6.22013e-010 6.172e-013 0)
(6.58079e-011 2.45963e-012 0)
(5.60972e-012 1.76153e-013 0)
(-4.17217e-012 -1.09559e-012 0)
(5.7971e-014 3.77314e-012 0)
(4.09758e-012 5.58352e-012 0)
(-3.07035e-012 -2.7123e-013 0)
(5.51644e-012 6.65743e-012 0)
(7.1649e-012 -2.42751e-012 0)
(1.75422e-012 3.05053e-012 0)
(-5.15098e-012 -5.59515e-012 0)
(-3.97611e-012 5.75659e-012 0)
(2.22108e-012 -2.2527e-012 0)
(-1.85934e-012 -3.05218e-012 0)
(1.9631e-013 -4.38824e-013 0)
(8.76029e-014 -1.66066e-012 0)
(-1.39492e-013 4.10574e-012 0)
(-5.58673e-013 4.8543e-012 0)
(1.85566e-012 2.28982e-012 0)
(-6.72522e-013 -3.00127e-012 0)
(-3.05182e-012 -1.17751e-012 0)
(-2.26611e-012 -4.9096e-012 0)
(9.04059e-013 4.04078e-012 0)
(3.23935e-012 2.32165e-012 0)
(-4.71546e-013 -7.99144e-012 0)
(2.19484e-011 -6.7683e-012 0)
(2.96695e-010 1.49873e-013 0)
(6.48947e-009 3.46143e-012 0)
(7.44127e-008 5.92085e-012 0)
(1.28542e-006 -1.09161e-012 0)
(1.2495e-005 1.36812e-012 0)
(0.000166283 5.32221e-012 0)
(0.00133983 2.5887e-012 0)
(0.0132404 -4.36193e-012 0)
(0.0856657 -1.94937e-012 0)
(0.582147 -3.78049e-012 0)
(2.59989 -8.43856e-013 0)
(10.3302 -4.49169e-012 0)
(29.1173 -2.72632e-012 0)
(68.3807 1.37761e-011 0)
(127.63 1.96803e-011 0)
(183.26 5.43241e-011 0)
(231.962 8.0701e-011 0)
(278.832 8.56246e-011 0)
(315.564 6.85004e-011 0)
(312.283 1.83784e-012 0)
(244.243 -8.21471e-011 0)
(104.245 -1.7159e-011 0)
(17.4294 1.05231e-012 0)
(2.69253 2.52719e-012 0)
(0.416589 -3.2412e-012 0)
(0.0648669 1.50294e-012 0)
(0.0097249 5.64649e-013 0)
(0.00139982 8.72909e-013 0)
(0.000194031 -1.14574e-012 0)
(2.54653e-005 -1.18597e-013 0)
(3.28252e-006 6.71056e-014 0)
(3.95927e-007 1.18925e-012 0)
(4.80735e-008 7.85415e-013 0)
(5.38719e-009 2.37471e-014 0)
(6.22658e-010 2.81624e-012 0)
(6.54643e-011 9.74785e-013 0)
(7.42701e-012 -5.45399e-012 0)
(-1.36881e-012 3.19452e-012 0)
(-6.20436e-013 -1.10198e-012 0)
(2.20553e-012 1.25218e-012 0)
(-5.3939e-012 -2.69901e-012 0)
(4.63928e-012 5.3608e-012 0)
(4.50365e-012 -2.25927e-013 0)
(5.84026e-014 4.31786e-012 0)
(-2.37261e-012 -3.2198e-012 0)
(-2.51317e-012 2.3868e-012 0)
(2.13184e-013 -6.60018e-013 0)
(-3.54171e-012 8.15992e-013 0)
(-3.25206e-013 4.14161e-012 0)
(3.55556e-013 4.12493e-012 0)
(3.63746e-013 5.95561e-012 0)
(-6.07762e-013 2.85547e-012 0)
(2.23733e-012 1.50775e-012 0)
(-1.11758e-012 7.49663e-014 0)
(-3.3746e-012 -1.2168e-012 0)
(-2.25898e-012 -5.41308e-012 0)
(7.16781e-013 6.22819e-012 0)
(3.25068e-012 -2.34917e-012 0)
(-4.80502e-013 -4.56781e-012 0)
(2.20876e-011 -2.08737e-012 0)
(2.96949e-010 2.76837e-012 0)
(6.48982e-009 3.96215e-012 0)
(7.44129e-008 4.00729e-012 0)
(1.28542e-006 -2.94461e-012 0)
(1.2495e-005 3.36617e-012 0)
(0.000166283 4.52403e-012 0)
(0.00133983 1.84615e-012 0)
(0.0132404 -3.85633e-012 0)
(0.0856657 -3.81346e-012 0)
(0.582147 -2.5914e-012 0)
(2.59989 3.84385e-013 0)
(10.3302 -4.92952e-012 0)
(29.1173 -2.14496e-012 0)
(68.3807 1.59364e-011 0)
(127.63 2.12536e-011 0)
(183.26 5.02765e-011 0)
(231.962 7.91975e-011 0)
(278.832 7.88356e-011 0)
(315.564 4.97524e-011 0)
(312.283 -3.71933e-011 0)
(244.243 -1.25123e-010 0)
(104.245 -2.5825e-011 0)
(17.4294 7.15732e-013 0)
(2.69253 3.76201e-013 0)
(0.416589 -9.66319e-013 0)
(0.0648669 -1.68424e-012 0)
(0.0097249 3.55044e-013 0)
(0.00139982 -1.28042e-012 0)
(0.000194031 -3.89902e-012 0)
(2.54653e-005 -2.43876e-012 0)
(3.28252e-006 1.49662e-012 0)
(3.95927e-007 1.63757e-012 0)
(4.80718e-008 4.41777e-014 0)
(5.38678e-009 1.15211e-012 0)
(6.22136e-010 2.96723e-012 0)
(6.48983e-011 1.47626e-012 0)
(5.89352e-012 -3.76161e-012 0)
(-3.61886e-012 -1.85454e-012 0)
(-1.74841e-013 -3.85197e-014 0)
(3.83711e-012 1.07924e-012 0)
(-2.63198e-012 -2.94854e-013 0)
(5.78992e-012 6.59033e-012 0)
(6.98746e-012 -1.80557e-012 0)
(1.28058e-012 4.23566e-012 0)
(-5.35497e-012 -3.13393e-012 0)
(-3.5584e-012 3.60377e-012 0)
(1.90674e-012 -7.68984e-013 0)
(-1.7058e-012 3.66583e-012 0)
(1.89456e-013 8.45522e-013 0)
(1.39801e-013 1.58109e-012 0)
(-1.68735e-013 6.24386e-012 0)
(-6.94991e-013 5.60588e-012 0)
(1.77685e-012 4.05955e-012 0)
(-7.7371e-013 -6.49104e-013 0)
(-3.24436e-012 -5.71895e-013 0)
(-2.00551e-012 -5.92707e-012 0)
(9.94876e-013 2.70391e-012 0)
(2.87143e-012 1.59568e-013 0)
(-4.62449e-013 -5.39739e-012 0)
(2.22216e-011 -4.88597e-012 0)
(2.96951e-010 2.90559e-012 0)
(6.48952e-009 1.7208e-012 0)
(7.44124e-008 7.91788e-013 0)
(1.28542e-006 -3.19384e-012 0)
(1.2495e-005 4.71191e-012 0)
(0.000166283 3.13674e-012 0)
(0.00133983 -1.43295e-012 0)
(0.0132404 -2.75295e-012 0)
(0.0856657 -2.99945e-012 0)
(0.582147 -5.39207e-012 0)
(2.59989 -2.96277e-013 0)
(10.3302 -3.89453e-012 0)
(29.1173 -3.51199e-012 0)
(68.3807 1.4163e-011 0)
(127.63 2.02317e-011 0)
(183.26 4.62497e-011 0)
(231.962 7.58406e-011 0)
(278.832 6.93676e-011 0)
(315.564 3.16368e-011 0)
(312.283 -6.90161e-011 0)
(244.243 -1.5982e-010 0)
(104.245 -3.70261e-011 0)
(17.4294 4.39763e-013 0)
(2.69253 2.50976e-012 0)
(0.416589 -7.38113e-013 0)
(0.0648669 -5.23603e-014 0)
(0.0097249 2.10485e-013 0)
(0.00139982 1.85839e-012 0)
(0.000194031 -3.26495e-012 0)
(2.54653e-005 1.37407e-013 0)
(3.28252e-006 1.14265e-012 0)
(3.95927e-007 2.85819e-012 0)
(4.80734e-008 -9.09716e-013 0)
(5.38744e-009 -1.11971e-012 0)
(6.22644e-010 2.20017e-013 0)
(6.47199e-011 -4.42339e-013 0)
(7.03057e-012 -9.4299e-012 0)
(-1.02184e-012 1.86055e-012 0)
(-2.78596e-013 4.00166e-012 0)
(2.17433e-012 2.3605e-012 0)
(-4.65917e-012 -4.49914e-012 0)
(4.51944e-012 7.28267e-012 0)
(4.30655e-012 -1.55028e-012 0)
(-9.24679e-014 -2.83312e-012 0)
(-2.52309e-012 -4.13547e-012 0)
(-2.27222e-012 2.88131e-012 0)
(3.58462e-013 -1.38225e-013 0)
(-2.85442e-012 3.31926e-012 0)
(-2.7864e-013 4.6058e-012 0)
(4.94179e-013 1.77294e-012 0)
(4.82094e-013 7.10532e-012 0)
(-6.79652e-013 7.796e-013 0)
(2.01202e-012 -1.23387e-012 0)
(-1.24634e-012 3.44281e-012 0)
(-3.53394e-012 -1.87518e-012 0)
(-2.13198e-012 -5.42444e-012 0)
(9.18818e-013 2.85595e-012 0)
(2.94788e-012 -2.40967e-012 0)
(-6.61572e-013 -1.62468e-012 0)
(2.23996e-011 -5.27417e-012 0)
(2.97189e-010 4.78188e-012 0)
(6.48973e-009 5.58752e-013 0)
(7.44127e-008 -1.60215e-014 0)
(1.28542e-006 -1.3358e-012 0)
(1.2495e-005 5.75435e-012 0)
(0.000166283 2.54454e-012 0)
(0.00133983 -8.80291e-013 0)
(0.0132404 -1.30571e-012 0)
(0.0856657 -1.96355e-012 0)
(0.582147 -5.44852e-012 0)
(2.59989 -1.81939e-012 0)
(10.3302 -2.89537e-012 0)
(29.1173 -4.1616e-012 0)
(68.3807 1.40772e-011 0)
(127.63 1.81556e-011 0)
(183.26 3.85032e-011 0)
(231.962 7.28168e-011 0)
(278.832 6.5637e-011 0)
(315.564 2.11439e-011 0)
(312.283 -8.40033e-011 0)
(244.243 -1.78416e-010 0)
(104.245 -4.31924e-011 0)
(17.4294 -2.38425e-012 0)
(2.69253 -4.54323e-013 0)
(0.416589 -4.03678e-013 0)
(0.0648669 -8.93272e-013 0)
(0.0097249 6.58517e-013 0)
(0.00139982 -2.79434e-013 0)
(0.000194031 -1.15464e-012 0)
(2.54653e-005 -4.70431e-012 0)
(3.28252e-006 1.93234e-012 0)
(3.95927e-007 4.59296e-012 0)
(4.80715e-008 1.60515e-012 0)
(5.38695e-009 2.98644e-013 0)
(6.22237e-010 2.19714e-012 0)
(6.38829e-011 -6.37571e-013 0)
(6.21369e-012 -2.60973e-012 0)
(-2.15415e-012 -3.18742e-012 0)
(-1.24036e-013 2.23387e-012 0)
(2.85459e-012 -2.57867e-012 0)
(-2.11279e-012 9.44993e-013 0)
(6.05356e-012 7.89668e-012 0)
(5.67164e-012 -1.98371e-012 0)
(9.49548e-013 1.84386e-012 0)
(-4.49773e-012 -4.05909e-013 0)
(-3.01288e-012 4.52654e-012 0)
(1.96533e-012 8.24442e-013 0)
(-1.3876e-012 7.00473e-012 0)
(1.0223e-013 5.09916e-013 0)
(2.16891e-013 3.1821e-012 0)
(-1.76103e-013 3.62261e-012 0)
(-9.40571e-013 4.65362e-012 0)
(1.85731e-012 -8.75962e-013 0)
(-8.02996e-013 4.12776e-012 0)
(-3.51721e-012 3.25164e-014 0)
(-1.85225e-012 -5.49927e-012 0)
(1.07735e-012 1.48182e-012 0)
(2.71647e-012 -2.25421e-012 0)
(-5.75139e-013 -6.67928e-012 0)
(2.24723e-011 -4.0552e-012 0)
(2.9717e-010 3.46418e-012 0)
(6.48934e-009 7.31622e-013 0)
(7.44123e-008 1.50303e-012 0)
(1.28542e-006 -4.71511e-012 0)
(1.2495e-005 5.80396e-012 0)
(0.000166283 3.40114e-012 0)
(0.00133983 -1.43204e-013 0)
(0.0132404 -1.10512e-012 0)
(0.0856657 -5.94876e-013 0)
(0.582147 -3.92475e-012 0)
(2.59989 -1.22535e-012 0)
(10.3302 -4.68793e-012 0)
(29.1173 -2.7171e-012 0)
(68.3807 1.28136e-011 0)
(127.63 1.69153e-011 0)
(183.26 3.092e-011 0)
(231.962 7.29467e-011 0)
(278.832 6.59733e-011 0)
(315.564 1.9571e-011 0)
(312.283 -8.40488e-011 0)
(244.243 -1.70154e-010 0)
(104.245 -3.91387e-011 0)
(17.4294 -1.95548e-012 0)
(2.69253 2.47539e-012 0)
(0.416589 1.07936e-013 0)
(0.0648669 1.72061e-012 0)
(0.0097249 1.45971e-012 0)
(0.00139982 4.77049e-013 0)
(0.000194031 5.5101e-013 0)
(2.54653e-005 -3.83168e-012 0)
(3.28252e-006 1.46587e-012 0)
(3.95927e-007 4.27699e-012 0)
(4.80729e-008 -6.44771e-013 0)
(5.38742e-009 -2.80008e-012 0)
(6.22529e-010 3.05012e-012 0)
(6.429e-011 -3.22947e-013 0)
(6.78259e-012 -8.33346e-012 0)
(-5.79466e-013 2.66556e-012 0)
(-2.48034e-013 5.92254e-012 0)
(2.1114e-012 -9.34816e-013 0)
(-3.38797e-012 -2.50678e-012 0)
(4.18957e-012 6.40947e-012 0)
(3.6483e-012 2.47806e-012 0)
(1.02327e-013 -3.92304e-012 0)
(-2.26368e-012 -3.51616e-012 0)
(-2.16294e-012 2.75628e-012 0)
(7.35196e-013 2.9429e-013 0)
(-1.94692e-012 1.07157e-012 0)
(-2.05118e-013 6.42992e-012 0)
(5.64191e-013 -2.39567e-012 0)
(4.94079e-013 4.22457e-012 0)
(-8.04293e-013 2.71075e-012 0)
(2.00377e-012 3.1804e-012 0)
(-1.21392e-012 4.98401e-012 0)
(-3.81919e-012 8.10033e-013 0)
(-2.08484e-012 -6.53925e-012 0)
(1.02577e-012 6.93131e-013 0)
(2.67969e-012 -3.56341e-012 0)
(-7.12917e-013 -4.93766e-012 0)
(2.27523e-011 -4.61198e-012 0)
(2.9735e-010 2.74115e-012 0)
(6.48965e-009 2.05528e-012 0)
(7.44125e-008 4.07043e-012 0)
(1.28542e-006 -3.05475e-012 0)
(1.2495e-005 4.46769e-012 0)
(0.000166283 9.58829e-013 0)
(0.00133983 5.40829e-013 0)
(0.0132404 -3.53904e-013 0)
(0.0856657 -1.10054e-012 0)
(0.582147 -4.6297e-012 0)
(2.59989 -9.3465e-013 0)
(10.3302 -3.82233e-012 0)
(29.1173 -4.57894e-012 0)
(68.3807 1.16307e-011 0)
(127.63 1.37787e-011 0)
(183.26 2.34899e-011 0)
(231.962 7.25135e-011 0)
(278.832 6.58261e-011 0)
(315.564 2.12224e-011 0)
(312.283 -7.73752e-011 0)
(244.243 -1.52435e-010 0)
(104.245 -3.48856e-011 0)
(17.4294 -2.54199e-012 0)
(2.69253 1.48445e-012 0)
(0.416589 -3.8853e-012 0)
(0.0648669 1.43795e-012 0)
(0.0097249 8.24079e-013 0)
(0.00139982 1.05899e-012 0)
(0.000194031 2.31804e-012 0)
(2.54653e-005 -3.89534e-012 0)
(3.28252e-006 4.77673e-014 0)
(3.95927e-007 2.6202e-012 0)
(4.8071e-008 2.3655e-012 0)
(5.3873e-009 -1.19369e-012 0)
(6.22429e-010 6.30376e-012 0)
(6.28697e-011 2.84129e-012 0)
(6.49637e-012 -3.44659e-012 0)
(-7.09047e-013 -6.46082e-013 0)
(-4.79333e-013 7.43692e-013 0)
(1.96384e-012 -4.11641e-012 0)
(-1.38046e-012 2.70162e-012 0)
(6.50786e-012 6.58162e-012 0)
(4.45861e-012 -3.94383e-012 0)
(2.87316e-013 -8.11833e-014 0)
(-3.6041e-012 -6.15757e-013 0)
(-2.54114e-012 4.45911e-012 0)
(1.69005e-012 2.01993e-012 0)
(-1.37162e-012 2.50606e-012 0)
(-1.29553e-013 -2.69415e-012 0)
(1.82486e-013 -3.00451e-013 0)
(-1.35044e-014 -9.17413e-013 0)
(-9.78963e-013 6.04266e-012 0)
(1.92541e-012 1.26832e-012 0)
(-8.8891e-013 1.9363e-012 0)
(-3.8756e-012 3.16749e-012 0)
(-1.84691e-012 -8.74253e-012 0)
(1.17332e-012 -2.44715e-013 0)
(2.53544e-012 -1.24671e-012 0)
(-6.09102e-013 -4.83303e-012 0)
(2.27485e-011 -8.55376e-012 0)
(2.9739e-010 2.71042e-012 0)
(6.48941e-009 5.08596e-013 0)
(7.44121e-008 5.64015e-012 0)
(1.28542e-006 -4.01788e-012 0)
(1.2495e-005 1.64199e-012 0)
(0.000166283 2.6838e-012 0)
(0.00133983 -6.64275e-014 0)
(0.0132404 -1.70189e-012 0)
(0.0856657 -1.90386e-012 0)
(0.582147 -3.46927e-012 0)
(2.59989 -1.88222e-012 0)
(10.3302 -4.88732e-012 0)
(29.1173 -1.36868e-012 0)
(68.3807 1.11149e-011 0)
(127.63 1.21272e-011 0)
(183.26 1.89119e-011 0)
(231.962 6.61778e-011 0)
(278.832 5.66502e-011 0)
(315.564 1.00725e-011 0)
(312.283 -8.25877e-011 0)
(244.243 -1.43226e-010 0)
(104.245 -2.82519e-011 0)
(17.4294 -2.49714e-012 0)
(2.69253 3.50169e-012 0)
(0.416589 -1.81019e-012 0)
(0.0648669 1.58173e-012 0)
(0.0097249 2.41926e-012 0)
(0.00139982 -1.03639e-012 0)
(0.000194031 1.46198e-012 0)
(2.54653e-005 -1.36026e-012 0)
(3.28252e-006 -1.92472e-012 0)
(3.95927e-007 1.51389e-012 0)
(4.80725e-008 -6.29963e-014 0)
(5.38777e-009 -7.47724e-013 0)
(6.22883e-010 5.98706e-012 0)
(6.33518e-011 -6.03468e-013 0)
(6.45636e-012 -2.98061e-012 0)
(-2.15001e-013 4.64261e-012 0)
(-5.71371e-013 3.19172e-012 0)
(2.31226e-012 -7.16739e-013 0)
(-2.23746e-012 -2.32673e-013 0)
(3.57411e-012 4.93318e-012 0)
(2.95171e-012 1.76351e-012 0)
(4.50296e-013 -2.92096e-012 0)
(-1.76325e-012 -5.00138e-013 0)
(-1.88297e-012 2.58736e-012 0)
(5.70685e-013 -1.33138e-012 0)
(-1.85722e-012 -1.76457e-012 0)
(-1.4425e-013 2.08028e-012 0)
(5.91224e-013 -5.73478e-012 0)
(6.33744e-013 8.16131e-013 0)
(-7.44302e-013 4.24305e-012 0)
(1.89523e-012 4.10411e-012 0)
(-1.14931e-012 6.21419e-012 0)
(-4.12836e-012 8.30048e-013 0)
(-2.17703e-012 -5.21486e-012 0)
(1.2428e-012 3.66749e-013 0)
(2.53767e-012 -4.13354e-012 0)
(-9.34546e-013 -4.24417e-012 0)
(2.30086e-011 -7.29502e-012 0)
(2.97639e-010 1.52624e-012 0)
(6.48974e-009 -9.85312e-013 0)
(7.44123e-008 8.59153e-012 0)
(1.28542e-006 -3.5572e-012 0)
(1.2495e-005 2.9411e-012 0)
(0.000166283 1.56035e-012 0)
(0.00133983 1.11113e-012 0)
(0.0132404 -1.66088e-012 0)
(0.0856657 -6.69517e-013 0)
(0.582147 -5.09744e-012 0)
(2.59989 3.0098e-013 0)
(10.3302 -3.91176e-012 0)
(29.1173 -3.4572e-012 0)
(68.3807 9.43686e-012 0)
(127.63 9.46597e-012 0)
(183.26 1.50999e-011 0)
(231.962 5.66671e-011 0)
(278.832 4.05769e-011 0)
(315.564 -1.12496e-011 0)
(312.283 -1.04069e-010 0)
(244.243 -1.45448e-010 0)
(104.245 -3.09613e-011 0)
(17.4294 -7.9142e-013 0)
(2.69253 4.33311e-012 0)
(0.416589 -1.5993e-012 0)
(0.0648669 6.83004e-013 0)
(0.0097249 1.80262e-012 0)
(0.00139982 4.4142e-013 0)
(0.000194031 1.93817e-012 0)
(2.54653e-005 -4.15405e-014 0)
(3.28252e-006 -2.93272e-012 0)