/*--------------------------------*- C++ -*----------------------------------*\
| =========                 |                                                 |
| \\      /  F ield         | OpenFOAM: The Open Source CFD Toolbox           |
|  \\    /   O peration     | Version:  5.x                                   |
|   \\  /    A nd           | Web:      www.OpenFOAM.org                      |
|    \\/     M anipulation  |                                                 |
\*---------------------------------------------------------------------------*/
/*   Windows 32 and 64 bit porting by blueCAPE: http://www.bluecape.com.pt   *\
|  Based on Windows porting (2.0.x v4) by Symscape: http://www.symscape.com   |
\*---------------------------------------------------------------------------*/
FoamFile
{
    version     2.0;
    format      ascii;
    class       volVectorField;
    location    "0.001";
    object      U_0;
}
// * * * * * * * * * * * * * * * * * * * * * * * * * * * * * * * * * * * * * //

dimensions      [0 1 -1 0 0 0 0];

internalField   nonuniform List<vector> 
10000
(
(-5.18282e-013 -1.18698e-012 0)
(-5.36745e-013 5.85157e-012 0)
(-1.04556e-015 -6.95814e-013 0)
(2.75679e-013 -1.96721e-014 0)
(3.24141e-012 -3.73337e-012 0)
(-9.39647e-013 -1.19249e-012 0)
(-2.7288e-012 2.32332e-012 0)
(-2.70773e-012 -7.20809e-013 0)
(-2.76602e-013 2.8761e-012 0)
(3.35628e-012 1.59423e-012 0)
(-1.18172e-013 2.53258e-012 0)
(2.19067e-011 3.79477e-013 0)
(2.91224e-010 4.07846e-013 0)
(6.39073e-009 -3.22051e-012 0)
(7.33396e-008 -1.35687e-012 0)
(1.26865e-006 3.55658e-013 0)
(1.23413e-005 1.24066e-012 0)
(0.000164465 1.59755e-012 0)
(0.00132623 -1.24335e-012 0)
(0.0131243 3.03234e-012 0)
(0.084985 3.33052e-012 0)
(0.578437 -1.13591e-012 0)
(2.58631 -5.71299e-013 0)
(10.2915 -2.64127e-012 0)
(29.0353 -1.19133e-013 0)
(68.2622 1.71686e-012 0)
(127.514 3.24298e-012 0)
(183.179 -1.19777e-011 0)
(231.951 -4.03332e-012 0)
(278.923 1.27641e-012 0)
(315.671 -3.47483e-012 0)
(312.185 -1.53197e-011 0)
(243.642 -2.33537e-011 0)
(103.268 -1.3183e-012 0)
(17.227 -3.12092e-013 0)
(2.66374 3.91966e-012 0)
(0.412172 -5.54722e-014 0)
(0.064149 1.4988e-013 0)
(0.00961084 -2.80087e-013 0)
(0.00138218 1.32655e-012 0)
(0.000191418 3.61875e-013 0)
(2.50965e-005 2.98193e-012 0)
(3.23201e-006 -1.3542e-012 0)
(3.89408e-007 -4.80412e-012 0)
(4.72366e-008 -2.44186e-012 0)
(5.28805e-009 2.71528e-012 0)
(6.111e-010 -1.52269e-012 0)
(6.44433e-011 4.73733e-013 0)
(6.41996e-012 -1.91701e-012 0)
(-4.47337e-012 4.97607e-012 0)
(-1.07229e-012 8.91505e-013 0)
(4.22975e-012 2.06202e-012 0)
(-5.33314e-012 -2.69845e-012 0)
(5.03678e-012 -2.7777e-012 0)
(8.56917e-012 3.52846e-012 0)
(2.71261e-012 -9.04366e-012 0)
(-7.35824e-012 -4.35913e-013 0)
(-5.43537e-012 -2.17922e-012 0)
(4.99164e-012 4.65364e-013 0)
(-1.2039e-012 -2.7963e-012 0)
(-1.65966e-013 -3.10686e-012 0)
(-5.14577e-013 -2.50476e-012 0)
(-2.44194e-013 -1.43891e-012 0)
(1.23476e-013 6.66199e-012 0)
(3.20559e-012 2.81113e-012 0)
(-6.61501e-013 -1.55266e-012 0)
(-2.72701e-012 -3.75238e-012 0)
(-2.67662e-012 -2.19656e-013 0)
(-1.32019e-013 -1.68169e-012 0)
(3.35591e-012 5.2255e-013 0)
(-2.31634e-013 8.78626e-013 0)
(2.17945e-011 6.39316e-013 0)
(2.91078e-010 2.42384e-012 0)
(6.39061e-009 -4.41068e-013 0)
(7.33398e-008 -6.27696e-013 0)
(1.26865e-006 7.00374e-013 0)
(1.23413e-005 1.20029e-012 0)
(0.000164465 4.27253e-013 0)
(0.00132623 -1.05637e-012 0)
(0.0131243 -9.5654e-015 0)
(0.084985 -2.12116e-012 0)
(0.578437 -1.14209e-012 0)
(2.58631 -9.43267e-013 0)
(10.2915 -5.40979e-013 0)
(29.0353 -3.44993e-012 0)
(68.2622 -3.78492e-014 0)
(127.514 1.58342e-012 0)
(183.179 -3.8392e-011 0)
(231.951 -1.57091e-011 0)
(278.923 1.36255e-012 0)
(315.671 -7.22472e-012 0)
(312.185 -2.75432e-011 0)
(243.642 -3.8156e-011 0)
(103.268 1.17177e-013 0)
(17.227 -2.9468e-013 0)
(2.66374 -1.78095e-012 0)
(0.412172 -5.83466e-013 0)
(0.064149 -4.14752e-012 0)
(0.00961084 3.86412e-012 0)
(0.00138218 1.02205e-013 0)
(0.000191418 1.39164e-012 0)
(2.50965e-005 -6.24936e-013 0)
(3.232e-006 3.96796e-012 0)
(3.89408e-007 2.89039e-012 0)
(4.72375e-008 1.32039e-012 0)
(5.28817e-009 -1.6738e-012 0)
(6.10739e-010 1.01527e-012 0)
(6.4526e-011 -3.2953e-012 0)
(7.1005e-012 -3.01135e-013 0)
(-4.17826e-012 -8.09617e-012 0)
(-1.44e-012 -1.79043e-012 0)
(3.63161e-012 6.78366e-013 0)
(-6.01997e-012 -1.24039e-012 0)
(6.04663e-012 1.26513e-012 0)
(7.34551e-012 -1.90219e-012 0)
(2.14809e-012 5.60832e-012 0)
(-6.21009e-012 -2.23419e-012 0)
(-5.28399e-012 4.72781e-012 0)
(4.92304e-012 1.83108e-012 0)
(-1.86357e-012 4.48299e-012 0)
(-4.78146e-013 -1.13566e-012 0)
(-4.56854e-013 9.36394e-012 0)
(3.54735e-013 1.53852e-012 0)
(4.46419e-013 7.16136e-012 0)
(2.88973e-012 1.89812e-013 0)
(-1.23192e-012 -9.98104e-013 0)
(-2.63709e-012 -4.70401e-014 0)
(-2.6056e-012 -6.75412e-012 0)
(-2.75301e-013 -2.69216e-013 0)
(3.47235e-012 8.21059e-013 0)
(-7.73665e-014 3.00209e-012 0)
(2.19811e-011 4.96733e-013 0)
(2.91141e-010 8.14073e-013 0)
(6.39053e-009 4.9412e-013 0)
(7.33397e-008 2.662e-013 0)
(1.26865e-006 -2.91563e-013 0)
(1.23413e-005 2.79344e-012 0)
(0.000164465 3.32827e-012 0)
(0.00132623 -2.75879e-012 0)
(0.0131243 -3.99763e-013 0)
(0.084985 -1.06784e-012 0)
(0.578437 -2.56263e-012 0)
(2.58631 2.07237e-013 0)
(10.2915 1.05418e-012 0)
(29.0353 6.6058e-014 0)
(68.2622 -1.86368e-012 0)
(127.514 1.08808e-012 0)
(183.179 -4.97985e-011 0)
(231.951 -2.85652e-011 0)
(278.923 -1.0082e-011 0)
(315.671 -1.09252e-011 0)
(312.185 -1.51813e-011 0)
(243.642 -9.15885e-012 0)
(103.268 6.23939e-012 0)
(17.227 2.52317e-012 0)
(2.66374 2.85853e-012 0)
(0.412172 9.72626e-013 0)
(0.064149 1.20051e-012 0)
(0.00961084 3.3691e-012 0)
(0.00138218 3.60207e-013 0)
(0.000191418 -1.38386e-012 0)
(2.50965e-005 3.78822e-012 0)
(3.23201e-006 9.20002e-013 0)
(3.89408e-007 -3.39737e-012 0)
(4.72361e-008 1.40811e-012 0)
(5.28808e-009 2.00843e-012 0)
(6.10967e-010 -7.36291e-013 0)
(6.42567e-011 -3.76802e-012 0)
(5.59146e-012 -1.38307e-012 0)
(-4.62862e-012 5.65836e-012 0)
(2.03303e-013 2.13372e-012 0)
(4.29652e-012 4.11155e-012 0)
(-5.23119e-012 1.46687e-012 0)
(4.90418e-012 4.11643e-015 0)
(9.31442e-012 1.60204e-012 0)
(2.53566e-012 -5.46362e-012 0)
(-7.46604e-012 -3.15761e-012 0)
(-4.69235e-012 3.66514e-012 0)
(4.99515e-012 1.05116e-012 0)
(-6.86055e-013 -3.46373e-012 0)
(1.35854e-013 -2.07965e-012 0)
(-4.28442e-013 1.37106e-012 0)
(-3.01322e-013 2.74249e-012 0)
(8.22939e-014 1.56334e-012 0)
(2.86528e-012 -1.89284e-012 0)
(-7.01477e-013 -1.85645e-012 0)
(-2.98719e-012 -3.01486e-012 0)
(-2.68626e-012 -8.88477e-012 0)
(2.1413e-013 -8.25643e-013 0)
(3.54105e-012 -3.77943e-012 0)
(-2.52144e-013 1.43615e-012 0)
(2.17024e-011 -8.82927e-013 0)
(2.91069e-010 -6.99792e-013 0)
(6.39059e-009 6.2383e-014 0)
(7.33397e-008 2.02218e-012 0)
(1.26865e-006 2.24443e-013 0)
(1.23413e-005 1.68061e-012 0)
(0.000164465 1.70914e-012 0)
(0.00132623 8.70727e-013 0)
(0.0131243 1.2874e-012 0)
(0.084985 -2.08142e-012 0)
(0.578437 -2.93738e-012 0)
(2.58631 -1.28031e-012 0)
(10.2915 1.36164e-012 0)
(29.0353 -2.49893e-013 0)
(68.2622 1.16427e-012 0)
(127.514 -1.76615e-012 0)
(183.179 -4.54624e-011 0)
(231.951 -3.48373e-011 0)
(278.923 -9.89808e-012 0)
(315.671 -2.10504e-012 0)
(312.185 1.35628e-011 0)
(243.642 3.86694e-011 0)
(103.268 1.65182e-011 0)
(17.227 2.72537e-012 0)
(2.66374 -1.05548e-012 0)
(0.412172 4.82248e-013 0)
(0.064149 -1.64632e-012 0)
(0.00961084 1.03009e-012 0)
(0.00138218 5.31741e-013 0)
(0.000191418 -8.92595e-013 0)
(2.50965e-005 3.09685e-012 0)
(3.232e-006 3.19196e-012 0)
(3.89408e-007 4.39069e-012 0)
(4.72379e-008 3.01076e-012 0)
(5.28783e-009 3.32056e-012 0)
(6.10122e-010 1.80203e-013 0)
(6.44549e-011 -2.39292e-012 0)
(8.21869e-012 1.09452e-012 0)
(-3.66407e-012 -2.45479e-012 0)
(-1.64905e-012 -2.9277e-012 0)
(3.5752e-012 -1.01667e-012 0)
(-6.68659e-012 4.12476e-012 0)
(6.13745e-012 2.47352e-012 0)
(6.53979e-012 -1.43847e-012 0)
(1.39595e-012 2.62495e-013 0)
(-4.68427e-012 1.84666e-012 0)
(-4.50888e-012 3.6436e-012 0)
(3.55498e-012 3.01209e-012 0)
(-2.66187e-012 6.67377e-013 0)
(-3.31285e-013 1.05282e-012 0)
(-2.75372e-013 5.24384e-012 0)
(3.41377e-013 5.34729e-012 0)
(2.39298e-013 2.94867e-012 0)
(2.76011e-012 1.01667e-012 0)
(-1.24215e-012 -5.83293e-012 0)
(-2.95919e-012 5.37413e-013 0)
(-2.4984e-012 -5.4813e-012 0)
(-2.70228e-014 3.79617e-012 0)
(3.56843e-012 -1.50063e-012 0)
(3.79679e-014 5.2206e-012 0)
(2.18751e-011 2.60099e-013 0)
(2.91188e-010 1.74293e-013 0)
(6.39067e-009 3.99649e-012 0)
(7.33397e-008 3.32382e-012 0)
(1.26865e-006 -4.17899e-012 0)
(1.23413e-005 7.55114e-013 0)
(0.000164465 6.72893e-012 0)
(0.00132623 7.93322e-013 0)
(0.0131243 -2.34868e-013 0)
(0.084985 -3.89464e-012 0)
(0.578437 -1.07254e-012 0)
(2.58631 -2.19624e-013 0)
(10.2915 2.64931e-012 0)
(29.0353 2.99651e-012 0)
(68.2622 4.63382e-012 0)
(127.514 -4.71697e-013 0)
(183.179 -2.31676e-011 0)
(231.951 -2.04583e-011 0)
(278.923 5.67606e-012 0)
(315.671 1.92591e-011 0)
(312.185 4.54432e-011 0)
(243.642 6.57595e-011 0)
(103.268 2.27125e-011 0)
(17.227 2.56177e-012 0)
(2.66374 2.39953e-012 0)
(0.412172 -5.41672e-013 0)
(0.064149 -1.41276e-012 0)
(0.00961084 2.60026e-012 0)
(0.00138218 -2.98854e-012 0)
(0.000191418 7.81411e-013 0)
(2.50965e-005 3.84599e-012 0)
(3.23201e-006 -1.30688e-012 0)
(3.89408e-007 9.3371e-013 0)
(4.72361e-008 2.84533e-012 0)
(5.28778e-009 1.36345e-012 0)
(6.10196e-010 6.39329e-013 0)
(6.43825e-011 1.25329e-012 0)
(5.62435e-012 -2.31799e-012 0)
(-5.05772e-012 3.1469e-012 0)
(3.47533e-013 4.33885e-012 0)
(5.26453e-012 9.09926e-013 0)
(-4.79589e-012 3.92258e-012 0)
(4.04423e-012 9.87313e-013 0)
(8.97833e-012 -1.12756e-012 0)
(3.05134e-012 -3.00571e-012 0)
(-6.84441e-012 -3.40728e-012 0)
(-4.53331e-012 5.05467e-012 0)
(4.44971e-012 1.49537e-012 0)
(-1.16186e-012 9.0031e-014 0)
(2.62469e-013 1.09259e-012 0)
(-2.81495e-013 3.63183e-012 0)
(-3.73783e-013 9.07061e-012 0)
(-5.20372e-014 -1.41513e-012 0)
(2.52623e-012 -2.16e-013 0)
(-7.62323e-013 -8.68324e-013 0)
(-2.97745e-012 1.41474e-012 0)
(-2.52124e-012 -9.06345e-012 0)
(3.65101e-013 7.1674e-013 0)
(3.61688e-012 -3.54202e-012 0)
(-1.50211e-013 5.89935e-012 0)
(2.14489e-011 -1.54234e-012 0)
(2.9126e-010 -2.13543e-012 0)
(6.39076e-009 1.8409e-012 0)
(7.33393e-008 3.74807e-012 0)
(1.26865e-006 -8.64369e-013 0)
(1.23413e-005 1.00957e-012 0)
(0.000164465 6.25121e-012 0)
(0.00132623 1.26125e-012 0)
(0.0131243 7.76397e-013 0)
(0.084985 -3.60563e-012 0)
(0.578437 -1.80382e-012 0)
(2.58631 1.79749e-013 0)
(10.2915 7.71179e-013 0)
(29.0353 1.11201e-013 0)
(68.2622 7.07139e-012 0)
(127.514 3.97355e-012 0)
(183.179 8.01317e-012 0)
(231.951 8.44384e-012 0)
(278.923 3.09042e-011 0)
(315.671 4.39455e-011 0)
(312.185 6.05203e-011 0)
(243.642 6.65945e-011 0)
(103.268 1.95907e-011 0)
(17.227 3.52022e-012 0)
(2.66374 1.71463e-012 0)
(0.412172 -3.03557e-012 0)
(0.064149 8.63823e-013 0)
(0.00961084 2.2819e-012 0)
(0.00138218 -3.65956e-012 0)
(0.000191418 -1.31579e-012 0)
(2.50965e-005 -7.01732e-013 0)
(3.232e-006 1.85454e-012 0)
(3.89409e-007 8.31521e-013 0)
(4.72379e-008 3.7544e-012 0)
(5.28753e-009 3.5928e-012 0)
(6.10042e-010 -2.71681e-012 0)
(6.40653e-011 1.84085e-012 0)
(8.50704e-012 2.27373e-012 0)
(-2.88068e-012 1.40685e-012 0)
(-1.81107e-012 -4.39737e-013 0)
(3.50799e-012 2.90003e-013 0)
(-6.58982e-012 -1.81032e-012 0)
(5.37832e-012 6.19311e-012 0)
(5.94968e-012 3.04281e-012 0)
(1.07716e-012 1.50939e-012 0)
(-3.45896e-012 -3.10998e-012 0)
(-3.76787e-012 4.43482e-012 0)
(2.75941e-012 -4.35233e-013 0)
(-2.79465e-012 -1.746e-012 0)
(-2.1922e-013 9.92598e-013 0)
(8.17431e-015 4.24037e-013 0)
(1.2614e-013 7.56535e-012 0)
(-1.05585e-013 4.65756e-012 0)
(2.77038e-012 1.40101e-013 0)
(-1.14779e-012 -8.03526e-012 0)
(-3.27369e-012 3.91542e-013 0)
(-2.53571e-012 -8.80769e-012 0)
(2.09779e-013 1.80028e-012 0)
(3.79174e-012 -1.74631e-012 0)
(9.51329e-014 7.43755e-014 0)
(2.15244e-011 -2.5804e-012 0)
(2.91346e-010 -2.02114e-012 0)
(6.39094e-009 2.08684e-013 0)
(7.33396e-008 3.31048e-012 0)
(1.26865e-006 -5.49374e-013 0)
(1.23413e-005 -2.04063e-012 0)
(0.000164465 7.71778e-012 0)
(0.00132623 4.35984e-012 0)
(0.0131243 -4.23831e-013 0)
(0.084985 -3.65541e-012 0)
(0.578437 1.32087e-012 0)
(2.58631 -1.7203e-012 0)
(10.2915 9.14986e-013 0)
(29.0353 -6.48863e-013 0)
(68.2622 8.46836e-012 0)
(127.514 6.28328e-012 0)
(183.179 3.00499e-011 0)
(231.951 3.51099e-011 0)
(278.923 5.54454e-011 0)
(315.671 6.20829e-011 0)
(312.185 6.05405e-011 0)
(243.642 3.69705e-011 0)
(103.268 1.16482e-011 0)
(17.227 2.177e-012 0)
(2.66374 -1.75852e-013 0)
(0.412172 -2.58777e-012 0)
(0.064149 1.87531e-012 0)
(0.00961084 3.54358e-012 0)
(0.00138218 -3.22624e-012 0)
(0.000191418 -1.01189e-012 0)
(2.50965e-005 -6.4404e-013 0)
(3.23201e-006 2.34573e-012 0)
(3.89408e-007 -2.81061e-012 0)
(4.72363e-008 7.66431e-013 0)
(5.28701e-009 2.02835e-012 0)
(6.09968e-010 -1.08669e-012 0)
(6.49776e-011 2.63192e-012 0)
(5.7457e-012 -9.7961e-013 0)
(-5.3958e-012 -1.74679e-012 0)
(1.3886e-013 9.19098e-012 0)
(5.0776e-012 1.28909e-012 0)
(-4.0552e-012 1.42369e-012 0)
(4.70499e-012 7.24541e-012 0)
(8.15778e-012 -1.19243e-012 0)
(2.10012e-012 -1.01535e-012 0)
(-6.24894e-012 -5.91716e-012 0)
(-4.07576e-012 4.51344e-012 0)
(3.40979e-012 4.95328e-013 0)
(-1.4811e-012 -4.0887e-012 0)
(2.26647e-013 3.98422e-012 0)
(-7.2791e-014 5.09562e-013 0)
(-2.14096e-013 1.01101e-011 0)
(-3.10815e-013 2.76804e-012 0)
(2.07626e-012 -2.51231e-012 0)
(-7.59691e-013 -4.2417e-012 0)
(-3.04447e-012 8.81252e-013 0)
(-2.45091e-012 -4.90562e-012 0)
(6.45829e-013 2.59717e-012 0)
(3.54113e-012 7.55716e-013 0)
(-1.72848e-013 6.84525e-013 0)
(2.13619e-011 -4.81468e-012 0)
(2.91385e-010 -2.9301e-012 0)
(6.39101e-009 1.52333e-012 0)
(7.33393e-008 4.58142e-012 0)
(1.26865e-006 -5.86674e-013 0)
(1.23413e-005 -1.35475e-012 0)
(0.000164465 6.06965e-012 0)
(0.00132623 2.18573e-012 0)
(0.0131243 2.30075e-013 0)
(0.084985 -3.11464e-012 0)
(0.578437 -4.13525e-012 0)
(2.58631 6.23298e-013 0)
(10.2915 -2.18045e-012 0)
(29.0353 -2.07946e-012 0)
(68.2622 1.18126e-011 0)
(127.514 1.19864e-011 0)
(183.179 4.77124e-011 0)
(231.951 5.7761e-011 0)
(278.923 7.38196e-011 0)
(315.671 7.43585e-011 0)
(312.185 4.90639e-011 0)
(243.642 -4.71532e-012 0)
(103.268 3.52968e-012 0)
(17.227 2.66108e-012 0)
(2.66374 1.58937e-012 0)
(0.412172 -8.37193e-013 0)
(0.064149 1.86482e-012 0)
(0.00961084 1.52075e-012 0)
(0.00138218 -2.62413e-012 0)
(0.000191418 -1.08704e-012 0)
(2.50965e-005 -1.87673e-012 0)
(3.232e-006 1.6151e-012 0)
(3.89408e-007 -3.22008e-013 0)
(4.72384e-008 5.66179e-013 0)
(5.28737e-009 1.41943e-012 0)
(6.10239e-010 -7.29927e-013 0)
(6.40714e-011 1.6511e-012 0)
(7.81321e-012 -5.03506e-012 0)
(-1.74536e-012 -2.41136e-012 0)
(-1.41128e-012 3.84257e-012 0)
(2.6223e-012 -2.38507e-012 0)
(-5.6882e-012 -3.05891e-012 0)
(4.99583e-012 5.57105e-012 0)
(4.84845e-012 3.07094e-012 0)
(4.29577e-013 -1.07676e-012 0)
(-2.68757e-012 1.58202e-012 0)
(-2.91373e-012 5.51539e-012 0)
(1.4583e-012 1.55137e-012 0)
(-3.45085e-012 -1.11844e-012 0)
(-3.05556e-013 -1.16587e-013 0)
(2.17003e-013 1.56647e-013 0)
(1.78415e-013 4.08006e-012 0)
(-5.4767e-013 2.00241e-012 0)
(2.5141e-012 -3.29583e-012 0)
(-9.93789e-013 -5.16143e-012 0)
(-3.30986e-012 -3.49344e-013 0)
(-2.46e-012 -4.93823e-012 0)
(4.39927e-013 4.53012e-012 0)
(3.70368e-012 2.3554e-012 0)
(-1.2697e-013 -3.60021e-012 0)
(2.13543e-011 -5.26519e-012 0)
(2.91621e-010 1.20721e-012 0)
(6.39127e-009 3.53391e-012 0)
(7.33395e-008 4.26994e-012 0)
(1.26865e-006 -1.92709e-012 0)
(1.23413e-005 -5.81325e-013 0)
(0.000164465 5.73047e-012 0)
(0.00132623 2.04879e-012 0)
(0.0131243 -2.86894e-012 0)
(0.084985 -5.59111e-012 0)
(0.578437 -3.36308e-013 0)
(2.58631 -1.10092e-013 0)
(10.2915 -3.09441e-012 0)
(29.0353 -9.35994e-013 0)
(68.2622 1.09401e-011 0)
(127.514 1.67422e-011 0)
(183.179 5.40808e-011 0)
(231.951 7.21195e-011 0)
(278.923 8.53488e-011 0)
(315.671 7.75968e-011 0)
(312.185 2.9569e-011 0)
(243.642 -4.17743e-011 0)
(103.268 -9.23111e-012 0)
(17.227 4.54119e-013 0)
(2.66374 -5.91365e-013 0)
(0.412172 8.89347e-013 0)
(0.064149 1.04715e-013 0)
(0.00961084 1.23725e-012 0)
(0.00138218 -3.9532e-012 0)
(0.000191418 -1.95545e-012 0)
(2.50965e-005 -6.02141e-013 0)
(3.23201e-006 1.33009e-012 0)
(3.89408e-007 -2.92214e-013 0)
(4.72367e-008 -2.3165e-012 0)
(5.28687e-009 -9.32567e-015 0)
(6.09912e-010 6.19025e-013 0)
(6.44588e-011 2.52336e-012 0)
(5.46346e-012 1.96038e-013 0)
(-4.19329e-012 -1.06449e-012 0)
(5.61232e-014 3.76978e-012 0)
(4.09002e-012 5.57055e-012 0)
(-3.07865e-012 -2.5562e-013 0)
(5.51695e-012 6.67748e-012 0)
(7.17384e-012 -2.36981e-012 0)
(1.74729e-012 3.0103e-012 0)
(-5.14458e-012 -5.60821e-012 0)
(-3.96327e-012 5.77895e-012 0)
(2.21722e-012 -2.2075e-012 0)
(-1.8593e-012 -2.98504e-012 0)
(1.97319e-013 -4.80776e-013 0)
(8.72349e-014 -1.627e-012 0)
(-1.42161e-013 4.18038e-012 0)
(-5.59269e-013 4.87875e-012 0)
(1.85665e-012 2.27893e-012 0)
(-6.66997e-013 -3.06445e-012 0)
(-3.04581e-012 -1.14536e-012 0)
(-2.26109e-012 -4.81207e-012 0)
(8.95028e-013 4.06866e-012 0)
(3.23011e-012 2.23771e-012 0)
(-4.75718e-013 -7.99998e-012 0)
(2.15626e-011 -6.75663e-012 0)
(2.91775e-010 2.00414e-013 0)
(6.39116e-009 3.50867e-012 0)
(7.3339e-008 5.92527e-012 0)
(1.26865e-006 -1.02888e-012 0)
(1.23413e-005 1.30689e-012 0)
(0.000164465 5.40797e-012 0)
(0.00132623 2.60398e-012 0)
(0.0131243 -4.32498e-012 0)
(0.084985 -1.9258e-012 0)
(0.578437 -3.77462e-012 0)
(2.58631 -8.32541e-013 0)
(10.2915 -4.51498e-012 0)
(29.0353 -2.74351e-012 0)
(68.2622 1.36722e-011 0)
(127.514 1.97642e-011 0)
(183.179 5.46356e-011 0)
(231.951 8.05977e-011 0)
(278.923 8.53646e-011 0)
(315.671 6.82771e-011 0)
(312.185 1.5395e-012 0)
(243.642 -8.25539e-011 0)
(103.268 -1.69156e-011 0)
(17.227 1.06721e-012 0)
(2.66374 2.59939e-012 0)
(0.412172 -3.29891e-012 0)
(0.064149 1.48677e-012 0)
(0.00961084 6.01044e-013 0)
(0.00138218 8.08266e-013 0)
(0.000191418 -1.14356e-012 0)
(2.50965e-005 -1.01857e-013 0)
(3.232e-006 9.38646e-014 0)
(3.89408e-007 1.18575e-012 0)
(4.72383e-008 6.92993e-013 0)
(5.28757e-009 4.12545e-014 0)
(6.10562e-010 2.78884e-012 0)
(6.41101e-011 1.00667e-012 0)
(7.27463e-012 -5.46695e-012 0)
(-1.3826e-012 3.19575e-012 0)
(-6.15914e-013 -1.09107e-012 0)
(2.20218e-012 1.29203e-012 0)
(-5.40328e-012 -2.68086e-012 0)
(4.6328e-012 5.40225e-012 0)
(4.50791e-012 -2.64656e-013 0)
(4.99216e-014 4.30502e-012 0)
(-2.36361e-012 -3.1825e-012 0)
(-2.49725e-012 2.34866e-012 0)
(2.08485e-013 -6.7379e-013 0)
(-3.54098e-012 8.02942e-013 0)
(-3.24134e-013 4.12781e-012 0)
(3.55957e-013 4.16349e-012 0)
(3.61672e-013 5.96364e-012 0)
(-6.09165e-013 2.886e-012 0)
(2.23597e-012 1.51675e-012 0)
(-1.11211e-012 2.60137e-014 0)
(-3.36528e-012 -1.31187e-012 0)
(-2.25594e-012 -5.36126e-012 0)
(7.05307e-013 6.20569e-012 0)
(3.24237e-012 -2.32235e-012 0)
(-4.84983e-013 -4.58547e-012 0)
(2.17036e-011 -2.12182e-012 0)
(2.92031e-010 2.8187e-012 0)
(6.39151e-009 3.9758e-012 0)
(7.33392e-008 3.95157e-012 0)
(1.26865e-006 -2.89777e-012 0)
(1.23413e-005 3.32708e-012 0)
(0.000164465 4.57938e-012 0)
(0.00132623 1.84585e-012 0)
(0.0131243 -3.82016e-012 0)
(0.084985 -3.82245e-012 0)
(0.578437 -2.60528e-012 0)
(2.58631 3.21858e-013 0)
(10.2915 -4.96775e-012 0)
(29.0353 -2.20428e-012 0)
(68.2622 1.58394e-011 0)
(127.514 2.12445e-011 0)
(183.179 5.03101e-011 0)
(231.951 7.90577e-011 0)
(278.923 7.86046e-011 0)
(315.671 4.95407e-011 0)
(312.185 -3.74198e-011 0)
(243.642 -1.25047e-010 0)
(103.268 -2.49689e-011 0)
(17.227 7.61074e-013 0)
(2.66374 3.88097e-013 0)
(0.412172 -9.16868e-013 0)
(0.064149 -1.73403e-012 0)
(0.00961084 4.10954e-013 0)
(0.00138218 -1.37403e-012 0)
(0.000191418 -3.88935e-012 0)
(2.50965e-005 -2.46012e-012 0)
(3.23201e-006 1.5235e-012 0)
(3.89408e-007 1.70131e-012 0)
(4.72366e-008 -5.17428e-014 0)
(5.28717e-009 1.20453e-012 0)
(6.10037e-010 2.95727e-012 0)
(6.35505e-011 1.43619e-012 0)
(5.74354e-012 -3.78519e-012 0)
(-3.63722e-012 -1.85411e-012 0)
(-1.71824e-013 -8.39891e-014 0)
(3.83039e-012 1.06403e-012 0)
(-2.64013e-012 -3.38614e-013 0)
(5.78318e-012 6.62707e-012 0)
(6.98898e-012 -1.8385e-012 0)
(1.28402e-012 4.19026e-012 0)
(-5.35236e-012 -3.11766e-012 0)
(-3.55214e-012 3.51273e-012 0)
(1.9068e-012 -7.95086e-013 0)
(-1.70548e-012 3.65284e-012 0)
(1.92001e-013 8.14245e-013 0)
(1.40035e-013 1.64052e-012 0)
(-1.71632e-013 6.15346e-012 0)
(-6.95523e-013 5.59795e-012 0)
(1.77526e-012 4.05789e-012 0)
(-7.71619e-013 -7.14156e-013 0)
(-3.23469e-012 -6.94019e-013 0)
(-1.99825e-012 -5.95448e-012 0)
(9.84934e-013 2.73772e-012 0)
(2.86227e-012 2.44152e-013 0)
(-4.68903e-013 -5.40023e-012 0)
(2.18386e-011 -4.94117e-012 0)
(2.92033e-010 2.89676e-012 0)
(6.39121e-009 1.64873e-012 0)
(7.33387e-008 7.25741e-013 0)
(1.26865e-006 -3.21494e-012 0)
(1.23413e-005 4.68632e-012 0)
(0.000164465 3.12428e-012 0)
(0.00132623 -1.41987e-012 0)
(0.0131243 -2.69171e-012 0)
(0.084985 -3.02623e-012 0)
(0.578437 -5.36646e-012 0)
(2.58631 -3.62568e-013 0)
(10.2915 -3.92146e-012 0)
(29.0353 -3.56712e-012 0)
(68.2622 1.40707e-011 0)
(127.514 2.01657e-011 0)
(183.179 4.61792e-011 0)
(231.951 7.55036e-011 0)
(278.923 6.89144e-011 0)
(315.671 3.11269e-011 0)
(312.185 -6.96653e-011 0)
(243.642 -1.60006e-010 0)
(103.268 -3.56851e-011 0)
(17.227 5.05579e-013 0)
(2.66374 2.4613e-012 0)
(0.412172 -7.02434e-013 0)
(0.064149 -9.62681e-014 0)
(0.00961084 2.46388e-013 0)
(0.00138218 1.78697e-012 0)
(0.000191418 -3.19481e-012 0)
(2.50965e-005 1.76139e-013 0)
(3.232e-006 1.14282e-012 0)
(3.89408e-007 2.89413e-012 0)
(4.72382e-008 -9.7374e-013 0)
(5.28784e-009 -1.08194e-012 0)
(6.10539e-010 1.8105e-013 0)
(6.33646e-011 -4.25192e-013 0)
(6.88278e-012 -9.48024e-012 0)
(-1.03821e-012 1.87527e-012 0)
(-2.76077e-013 3.98347e-012 0)
(2.17134e-012 2.32912e-012 0)
(-4.66263e-012 -4.47916e-012 0)
(4.51418e-012 7.31365e-012 0)
(4.30082e-012 -1.57171e-012 0)
(-9.45345e-014 -2.85786e-012 0)
(-2.52046e-012 -4.11603e-012 0)
(-2.26191e-012 2.83912e-012 0)
(3.64593e-013 -1.61048e-013 0)
(-2.85194e-012 3.30098e-012 0)
(-2.75143e-013 4.61657e-012 0)
(4.92864e-013 1.767e-012 0)
(4.78164e-013 6.99801e-012 0)
(-6.78383e-013 7.43936e-013 0)
(2.00879e-012 -1.25037e-012 0)
(-1.24467e-012 3.35418e-012 0)
(-3.52337e-012 -1.78817e-012 0)
(-2.12369e-012 -5.48094e-012 0)
(9.11276e-013 2.86966e-012 0)
(2.9381e-012 -2.35929e-012 0)
(-6.71172e-013 -1.63591e-012 0)
(2.20157e-011 -5.3508e-012 0)
(2.92271e-010 4.7143e-012 0)
(6.39142e-009 5.33503e-013 0)
(7.3339e-008 -6.06919e-014 0)
(1.26865e-006 -1.38612e-012 0)
(1.23413e-005 5.75116e-012 0)
(0.000164465 2.54247e-012 0)
(0.00132623 -8.62842e-013 0)
(0.0131243 -1.26129e-012 0)
(0.084985 -1.98032e-012 0)
(0.578437 -5.478e-012 0)
(2.58631 -1.81937e-012 0)
(10.2915 -2.9298e-012 0)
(29.0353 -4.20515e-012 0)
(68.2622 1.39922e-011 0)
(127.514 1.80442e-011 0)
(183.179 3.83669e-011 0)
(231.951 7.22948e-011 0)
(278.923 6.49588e-011 0)
(315.671 2.02104e-011 0)
(312.185 -8.53519e-011 0)
(243.642 -1.79414e-010 0)
(103.268 -4.18915e-011 0)
(17.227 -2.31553e-012 0)
(2.66374 -4.92268e-013 0)
(0.412172 -4.46365e-013 0)
(0.064149 -9.05591e-013 0)
(0.00961084 6.75527e-013 0)
(0.00138218 -2.7015e-013 0)
(0.000191418 -1.07711e-012 0)
(2.50965e-005 -4.60824e-012 0)
(3.23201e-006 1.9144e-012 0)
(3.89408e-007 4.55942e-012 0)
(4.72363e-008 1.58454e-012 0)
(5.28734e-009 2.67181e-013 0)
(6.10137e-010 2.09869e-012 0)
(6.25336e-011 -5.65286e-013 0)
(6.06365e-012 -2.63361e-012 0)
(-2.16942e-012 -3.23882e-012 0)
(-1.25577e-013 2.25984e-012 0)
(2.85205e-012 -2.6214e-012 0)
(-2.1137e-012 9.74663e-013 0)
(6.04181e-012 7.89741e-012 0)
(5.66661e-012 -1.98426e-012 0)
(9.57682e-013 1.88007e-012 0)
(-4.49726e-012 -3.68947e-013 0)
(-3.01196e-012 4.43884e-012 0)
(1.96847e-012 7.95904e-013 0)
(-1.38651e-012 6.97324e-012 0)
(1.04338e-013 5.23276e-013 0)
(2.13895e-013 3.15742e-012 0)
(-1.79836e-013 3.56858e-012 0)
(-9.38581e-013 4.67631e-012 0)
(1.85409e-012 -8.6962e-013 0)
(-7.97654e-013 4.13998e-012 0)
(-3.50661e-012 1.1853e-013 0)
(-1.84714e-012 -5.52295e-012 0)
(1.07096e-012 1.49845e-012 0)
(2.7065e-012 -2.22559e-012 0)
(-5.86111e-013 -6.68208e-012 0)
(2.20871e-011 -4.09165e-012 0)
(2.92253e-010 3.38653e-012 0)
(6.39103e-009 7.59997e-013 0)
(7.33387e-008 1.46866e-012 0)
(1.26865e-006 -4.73826e-012 0)
(1.23413e-005 5.84979e-012 0)
(0.000164465 3.44821e-012 0)
(0.00132623 -1.27617e-013 0)
(0.0131243 -1.09061e-012 0)
(0.084985 -6.52528e-013 0)
(0.578437 -3.97613e-012 0)
(2.58631 -1.2411e-012 0)
(10.2915 -4.72248e-012 0)
(29.0353 -2.78034e-012 0)
(68.2622 1.27461e-011 0)
(127.514 1.67367e-011 0)
(183.179 3.07488e-011 0)
(231.951 7.24493e-011 0)
(278.923 6.52813e-011 0)
(315.671 1.85416e-011 0)
(312.185 -8.56307e-011 0)
(243.642 -1.71709e-010 0)
(103.268 -3.82183e-011 0)
(17.227 -1.88865e-012 0)
(2.66374 2.4551e-012 0)
(0.412172 7.45445e-014 0)
(0.064149 1.74169e-012 0)
(0.00961084 1.46597e-012 0)
(0.00138218 5.56895e-013 0)
(0.000191418 5.98792e-013 0)
(2.50965e-005 -3.76821e-012 0)
(3.232e-006 1.4917e-012 0)
(3.89408e-007 4.27868e-012 0)
(4.72378e-008 -5.92146e-013 0)
(5.28781e-009 -2.8679e-012 0)
(6.10434e-010 2.97695e-012 0)
(6.29416e-011 -3.06739e-013 0)
(6.62254e-012 -8.42722e-012 0)
(-5.90501e-013 2.55119e-012 0)
(-2.44919e-013 5.91785e-012 0)
(2.10889e-012 -8.97942e-013 0)
(-3.38653e-012 -2.50729e-012 0)
(4.1807e-012 6.39647e-012 0)
(3.64663e-012 2.51402e-012 0)
(1.04834e-013 -3.88783e-012 0)
(-2.27657e-012 -3.56229e-012 0)
(-2.16049e-012 2.69716e-012 0)
(7.4842e-013 3.30339e-013 0)
(-1.94472e-012 1.02141e-012 0)
(-2.02602e-013 6.43144e-012 0)
(5.6092e-013 -2.40559e-012 0)
(4.91521e-013 4.22187e-012 0)
(-8.01347e-013 2.73311e-012 0)
(2.00026e-012 3.23311e-012 0)
(-1.20982e-012 4.9988e-012 0)
(-3.80975e-012 7.98529e-013 0)
(-2.0788e-012 -6.53287e-012 0)
(1.0199e-012 6.998e-013 0)
(2.66921e-012 -3.54268e-012 0)
(-7.24686e-013 -4.91661e-012 0)
(2.23658e-011 -4.62263e-012 0)
(2.92434e-010 2.68816e-012 0)
(6.39134e-009 2.04556e-012 0)
(7.33388e-008 4.10693e-012 0)
(1.26865e-006 -3.03222e-012 0)
(1.23413e-005 4.54165e-012 0)
(0.000164465 9.73965e-013 0)
(0.00132623 5.28372e-013 0)
(0.0131243 -3.77775e-013 0)
(0.084985 -1.19457e-012 0)
(0.578437 -4.6946e-012 0)
(2.58631 -9.55799e-013 0)
(10.2915 -3.81584e-012 0)
(29.0353 -4.65172e-012 0)
(68.2622 1.15243e-011 0)
(127.514 1.35991e-011 0)
(183.179 2.33414e-011 0)
(231.951 7.22656e-011 0)
(278.923 6.54522e-011 0)
(315.671 2.0667e-011 0)
(312.185 -7.82724e-011 0)
(243.642 -1.5342e-010 0)
(103.268 -3.43947e-011 0)
(17.227 -2.53095e-012 0)
(2.66374 1.44356e-012 0)
(0.412172 -3.89653e-012 0)
(0.064149 1.45259e-012 0)
(0.00961084 8.01595e-013 0)
(0.00138218 1.11675e-012 0)
(0.000191418 2.37025e-012 0)
(2.50965e-005 -3.88073e-012 0)
(3.23201e-006 1.61392e-013 0)
(3.89408e-007 2.60698e-012 0)
(4.72358e-008 2.4656e-012 0)
(5.28768e-009 -1.20944e-012 0)
(6.10336e-010 6.32974e-012 0)
(6.15182e-011 2.80968e-012 0)
(6.33363e-012 -3.48744e-012 0)
(-7.15109e-013 -6.90162e-013 0)
(-4.65644e-013 7.2346e-013 0)
(1.96158e-012 -4.04772e-012 0)
(-1.38659e-012 2.64876e-012 0)
(6.50006e-012 6.54307e-012 0)
(4.45923e-012 -3.94132e-012 0)
(2.86188e-013 -8.88101e-014 0)
(-3.61536e-012 -6.22824e-013 0)
(-2.53026e-012 4.51472e-012 0)
(1.69429e-012 2.05732e-012 0)
(-1.38162e-012 2.50475e-012 0)
(-1.27684e-013 -2.67513e-012 0)
(1.79383e-013 -3.93072e-013 0)
(-1.63427e-014 -8.38681e-013 0)
(-9.75415e-013 6.05042e-012 0)
(1.92199e-012 1.31736e-012 0)
(-8.85352e-013 1.90614e-012 0)
(-3.86541e-012 3.19519e-012 0)
(-1.84115e-012 -8.74539e-012 0)
(1.16741e-012 -2.66812e-013 0)
(2.52584e-012 -1.1808e-012 0)
(-6.21188e-013 -4.78456e-012 0)
(2.23609e-011 -8.55182e-012 0)
(2.92474e-010 2.72122e-012 0)
(6.39109e-009 4.88441e-013 0)
(7.33385e-008 5.68877e-012 0)
(1.26865e-006 -3.98406e-012 0)
(1.23413e-005 1.69203e-012 0)
(0.000164465 2.64476e-012 0)
(0.00132623 -9.43824e-014 0)
(0.0131243 -1.73963e-012 0)
(0.084985 -1.95416e-012 0)
(0.578437 -3.5235e-012 0)
(2.58631 -1.88167e-012 0)
(10.2915 -4.8457e-012 0)
(29.0353 -1.41812e-012 0)
(68.2622 1.10146e-011 0)
(127.514 1.19619e-011 0)
(183.179 1.87473e-011 0)
(231.951 6.63463e-011 0)
(278.923 5.68591e-011 0)
(315.671 1.03755e-011 0)
(312.185 -8.2257e-011 0)
(243.642 -1.42888e-010 0)
(103.268 -2.76787e-011 0)
(17.227 -2.48961e-012 0)
(2.66374 3.44523e-012 0)
(0.412172 -1.81103e-012 0)
(0.064149 1.62111e-012 0)
(0.00961084 2.33335e-012 0)
(0.00138218 -1.02152e-012 0)
(0.000191418 1.51122e-012 0)
(2.50965e-005 -1.41032e-012 0)
(3.232e-006 -1.78109e-012 0)
(3.89408e-007 1.47557e-012 0)
(4.72373e-008 -3.41061e-015 0)
(5.28815e-009 -7.21548e-013 0)
(6.10786e-010 6.06036e-012 0)
(6.19975e-011 -7.1768e-013 0)
(6.29534e-012 -2.96602e-012 0)
(-2.24135e-013 4.63703e-012 0)
(-5.56983e-013 3.18985e-012 0)
(2.30631e-012 -7.45123e-013 0)
(-2.24699e-012 -3.1493e-013 0)
(3.57105e-012 4.9171e-012 0)
(2.95355e-012 1.74276e-012 0)
(4.51412e-013 -2.91563e-012 0)
(-1.76901e-012 -5.19918e-013 0)
(-1.87495e-012 2.60019e-012 0)
(5.76792e-013 -1.35049e-012 0)
(-1.86027e-012 -1.67336e-012 0)
(-1.44479e-013 2.09293e-012 0)
(5.89647e-013 -5.83566e-012 0)
(6.33535e-013 8.3944e-013 0)
(-7.42138e-013 4.26458e-012 0)
(1.89066e-012 4.11246e-012 0)
(-1.1457e-012 6.17724e-012 0)
(-4.11814e-012 8.17255e-013 0)
(-2.17244e-012 -5.22855e-012 0)
(1.23902e-012 3.42219e-013 0)
(2.52936e-012 -4.02022e-012 0)
(-9.48374e-013 -4.22363e-012 0)
(2.26207e-011 -7.3092e-012 0)
(2.92723e-010 1.61294e-012 0)
(6.39143e-009 -9.66107e-013 0)
(7.33386e-008 8.66692e-012 0)
(1.26865e-006 -3.53865e-012 0)
(1.23413e-005 2.97966e-012 0)
(0.000164465 1.52019e-012 0)
(0.00132623 1.09693e-012 0)
(0.0131243 -1.6651e-012 0)
(0.084985 -7.0775e-013 0)
(0.578437 -5.08252e-012 0)
(2.58631 2.09047e-013 0)
(10.2915 -3.89683e-012 0)
(29.0353 -3.49351e-012 0)
(68.2622 9.39111e-012 0)
(127.514 9.27545e-012 0)
(183.179 1.49355e-011 0)
(231.951 5.72389e-011 0)
(278.923 4.13349e-011 0)
(315.671 -1.02436e-011 0)
(312.185 -1.03017e-010 0)
(243.642 -1.44328e-010 0)
(103.268 -3.01548e-011 0)
(17.227 -6.9103e-013 0)
(2.66374 4.2915e-012 0)
(0.412172 -1.57154e-012 0)
(0.064149 6.84419e-013 0)
(0.00961084 1.71855e-012 0)
(0.00138218 4.84084e-013 0)
(0.000191418 1.96941e-012 0)
(2.50965e-005 -1.81017e-013 0)