/*--------------------------------*- C++ -*----------------------------------*\
| =========                 |                                                 |
| \\      /  F ield         | OpenFOAM: The Open Source CFD Toolbox           |
|  \\    /   O peration     | Version:  5.x                                   |
|   \\  /    A nd           | Web:      www.OpenFOAM.org                      |
|    \\/     M anipulation  |                                                 |
\*---------------------------------------------------------------------------*/
/*   Windows 32 and 64 bit porting by blueCAPE: http://www.bluecape.com.pt   *\
|  Based on Windows porting (2.0.x v4) by Symscape: http://www.symscape.com   |
\*---------------------------------------------------------------------------*/
FoamFile
{
    version     2.0;
    format      ascii;
    class       volScalarField;
    location    "0.0025";
    object      mag(U);
}
// * * * * * * * * * * * * * * * * * * * * * * * * * * * * * * * * * * * * * //

dimensions      [0 1 -1 0 0 0 0];

internalField   nonuniform List<scalar> 
100
(
1.09125e-007
1.24507e-006
1.18887e-005
0.000109299
0.000898047
0.00699975
0.0474829
0.296626
1.5495
6.96962
23.3699
60.2853
119.502
183.086
255.911
314.924
298.121
201.444
93.3562
24.1164
8.26349e-008
9.28061e-007
8.61496e-006
7.84723e-005
0.000628602
0.0048977
0.0326352
0.20665
1.08004
5.0538
17.7754
48.7501
101.572
161.068
240.821
313.533
311.399
208.67
80.1718
17.6797
6.76591
5.45477
4.55683
3.69522
2.98691
2.40612
1.93127
1.54458
1.23091
0.977422
0.773307
0.60954
0.478614
0.374311
0.291509
0.226003
0.174351
0.133736
0.102086
0.0744217
0.00143699
0.000435183
0.000125914
3.5837e-005
9.8196e-006
2.67925e-006
7.13728e-007
1.83707e-007
4.5645e-008
1.0979e-008
2.55952e-009
5.79125e-010
1.27532e-010
2.72102e-011
5.80513e-012
1.28839e-012
2.42522e-013
7.45264e-014
2.38145e-013
5.37601e-013
0.03978
0.0121294
0.00381628
0.00110404
0.000311198
8.34086e-005
2.15949e-005
5.37639e-006
1.29442e-006
3.01428e-007
6.80804e-008
1.4932e-008
3.18643e-009
6.6228e-010
1.34763e-010
2.70793e-011
5.58051e-012
1.58817e-012
2.64587e-013
4.87488e-013
)
;

boundaryField
{
    inlet
    {
        type            calculated;
        value           nonuniform List<scalar> 2(8.26349e-008 1.09125e-007);
    }
    outlet
    {
        type            calculated;
        value           nonuniform List<scalar> 2(4.87488e-013 5.37601e-013);
    }
    bottom
    {
        type            symmetryPlane;
    }
    top
    {
        type            symmetryPlane;
    }
    obstacle
    {
        type            calculated;
        value           nonuniform List<scalar> 
22
(
24.1164
0.00143699
6.76591
5.45477
4.55683
3.69522
2.98691
2.40612
1.93127
1.54458
1.23091
0.977422
0.773307
0.60954
0.478614
0.374311
0.291509
0.226003
0.174351
0.133736
0.102086
0.0744217
)
;
    }
    defaultFaces
    {
        type            empty;
    }
}


// ************************************************************************* //
