/*--------------------------------*- C++ -*----------------------------------*\
| =========                 |                                                 |
| \\      /  F ield         | OpenFOAM: The Open Source CFD Toolbox           |
|  \\    /   O peration     | Version:  5.x                                   |
|   \\  /    A nd           | Web:      www.OpenFOAM.org                      |
|    \\/     M anipulation  |                                                 |
\*---------------------------------------------------------------------------*/
/*   Windows 32 and 64 bit porting by blueCAPE: http://www.bluecape.com.pt   *\
|  Based on Windows porting (2.0.x v4) by Symscape: http://www.symscape.com   |
\*---------------------------------------------------------------------------*/
FoamFile
{
    version     2.0;
    format      ascii;
    class       surfaceScalarField;
    location    "0.0025";
    object      phi;
}
// * * * * * * * * * * * * * * * * * * * * * * * * * * * * * * * * * * * * * //

dimensions      [1 0 -1 0 0 0 0];

internalField   nonuniform List<scalar> 
137
(
6.34752e-007
2.36203e-009
6.0899e-006
3.21264e-008
5.53103e-005
3.60193e-007
0.000456959
3.87048e-006
0.00353248
3.7287e-005
0.0243137
0.000343542
0.152175
0.00274544
0.820965
0.0202863
3.81197
0.123949
14.2996
0.650616
40.1324
2.43972
74.173
6.66669
100.906
12.6115
103.34
18.63
85.8907
20.732
56.3747
18.4909
34.1869
14.3214
16.187
9.4202
5.16729
4.20665
1.00844
8.28497e-007
8.1868e-006
7.74595e-005
0.000662433
0.00537889
0.0386881
0.257605
1.47922
7.46842
30.9299
100.023
214.583
337.889
408.985
409.894
336.705
194.845
80.419
20.7325
3.18405
2.58698
2.0857
1.67682
1.34396
1.07367
0.854921
0.678491
0.536669
0.423046
0.332317
0.26011
0.202836
0.157561
0.121893
0.0938896
0.071978
0.0548885
0.0415993
0.0312895
0.0233212
-4.56192e-006
-9.29873e-005
2.61346e-006
-2.82183e-005
1.81792e-006
-8.35206e-006
8.90143e-007
-2.33935e-006
3.36968e-007
-6.30824e-007
1.09592e-007
-1.63018e-007
3.23529e-008
-4.06523e-008
8.94011e-009
-9.78867e-009
2.34212e-009
-2.28046e-009
5.86294e-010
-5.14616e-010
1.41009e-010
-1.12681e-010
3.27258e-011
-2.39723e-011
7.34346e-012
-4.96228e-012
1.6005e-012
-1.00139e-012
3.6593e-013
-1.96371e-013
6.57252e-014
-3.88023e-014
1.42109e-014
-6.91114e-015
-2.4869e-014
1.66533e-016
-6.75016e-014
3.58047e-015
5.66214e-015
0.00767413
0.00236966
0.000702549
0.00019837
5.37652e-005
1.39819e-005
3.50231e-006
8.46195e-007
1.977e-007
4.47399e-008
9.82565e-009
2.09745e-009
4.35879e-010
8.83773e-011
1.75611e-011
3.51008e-012
7.67386e-013
2.34479e-013
1.13687e-013
)
;

boundaryField
{
    inlet
    {
        type            calculated;
        value           nonuniform List<scalar> 2(-1.21463e-007 -9.58689e-008);
    }
    outlet
    {
        type            calculated;
        value           nonuniform List<scalar> 2(1.36318e-013 -9.83548e-014);
    }
    bottom
    {
        type            symmetryPlane;
        value           uniform 0;
    }
    top
    {
        type            symmetryPlane;
        value           uniform 0;
    }
    obstacle
    {
        type            calculated;
        value           nonuniform List<scalar> 
22
(
1.91738
3.33487e-005
0.020921
0.0161404
0.0132517
0.0106542
0.00853915
0.00682404
0.0054364
0.00431701
0.00341674
0.0026949
0.00211797
0.00165835
0.00129341
0.00100465
0.000776957
0.000598038
0.000457921
0.000348499
0.000263774
0.000190447
)
;
    }
    defaultFaces
    {
        type            empty;
        value           nonuniform 0();
    }
}


// ************************************************************************* //
