/*--------------------------------*- C++ -*----------------------------------*\
| =========                 |                                                 |
| \\      /  F ield         | OpenFOAM: The Open Source CFD Toolbox           |
|  \\    /   O peration     | Version:  5.x                                   |
|   \\  /    A nd           | Web:      www.OpenFOAM.org                      |
|    \\/     M anipulation  |                                                 |
\*---------------------------------------------------------------------------*/
/*   Windows 32 and 64 bit porting by blueCAPE: http://www.bluecape.com.pt   *\
|  Based on Windows porting (2.0.x v4) by Symscape: http://www.symscape.com   |
\*---------------------------------------------------------------------------*/
FoamFile
{
    version     2.0;
    format      ascii;
    class       volVectorField;
    location    "0.0025";
    object      U;
}
// * * * * * * * * * * * * * * * * * * * * * * * * * * * * * * * * * * * * * //

dimensions      [0 1 -1 0 0 0 0];

internalField   nonuniform List<vector> 
100
(
(1.09121e-007 9.98616e-010 0)
(1.24468e-006 3.13036e-008 1.65613e-017)
(1.18775e-005 5.16044e-007 -8.58737e-018)
(0.00010908 6.91901e-006 0)
(0.00089486 7.55901e-005 0)
(0.00695952 0.000749357 9.66069e-018)
(0.0470742 0.00621646 5.03838e-017)
(0.292942 0.0466021 -1.09329e-019)
(1.52298 0.285455 -3.31297e-017)
(6.80902 1.48757 1.14867e-017)
(22.6763 5.65102 -8.71648e-017)
(57.9878 16.4843 8.9362e-017)
(113.757 36.6072 0)
(172.272 61.9907 5.94896e-017)
(239.062 91.3208 -1.11814e-016)
(292.674 116.273 9.52874e-017)
(273.172 119.386 -1.56227e-016)
(177.994 94.3275 0)
(77.0018 52.7835 -1.47757e-016)
(18.4772 15.4982 1.47179e-016)
(8.26175e-008 -1.69461e-009 -9.3366e-018)
(9.27633e-007 -2.82064e-008 9.15232e-018)
(8.60753e-006 -3.5769e-007 -2.2438e-017)
(7.8366e-005 -4.08471e-006 5.28286e-017)
(0.000627351 -3.96497e-005 -3.45628e-017)
(0.00488453 -0.00035898 -3.817e-017)
(0.0325189 -0.00275335 2.9156e-017)
(0.205726 -0.0195142 0)
(1.07402 -0.11394 5.97861e-017)
(5.01993 -0.584073 -6.70688e-017)
(17.6318 -2.25444 -5.70022e-017)
(48.3088 -6.54507 1.15153e-016)
(100.608 -13.9551 -5.83549e-017)
(159.61 -21.625 8.21328e-017)
(238.751 -31.5103 -9.68471e-017)
(310.761 -41.5964 -9.76981e-017)
(308.71 -40.8416 1.33754e-016)
(207.045 -25.9869 -9.05921e-017)
(79.6484 -9.1464 2.96735e-016)
(17.5624 -2.03325 -1.94834e-016)
(6.7019 -0.928506 0)
(5.39903 -0.777844 1.31265e-015)
(4.50945 -0.655415 -2.66002e-015)
(3.65624 -0.535355 1.34355e-015)
(2.95493 -0.435882 0)
(2.37999 -0.353694 0)
(1.90998 -0.285979 1.37713e-015)
(1.5273 -0.230412 -2.78345e-015)
(1.21693 -0.184988 1.40317e-015)
(0.966153 -0.147993 0)
(0.764255 -0.117972 0)
(0.602296 -0.0936951 1.43805e-015)
(0.472837 -0.0741329 -2.90413e-015)
(0.369723 -0.0584243 1.46321e-015)
(0.28788 -0.0458536 0)
(0.223145 -0.0358277 0)
(0.172111 -0.0278573 1.50051e-015)
(0.13199 -0.0215376 -3.03007e-015)
(0.100732 -0.0165721 1.52674e-015)
(0.0734188 -0.0121762 0)
(0.000254827 -0.00141422 2.51508e-016)
(0.000165291 -0.00040257 -4.919e-016)
(4.76599e-005 -0.000116546 2.40632e-016)
(1.75023e-005 -3.12724e-005 2.3554e-016)
(5.52398e-006 -8.1185e-006 -2.30658e-016)
(1.77876e-006 -2.00359e-006 2.25974e-016)
(5.27954e-007 -4.80283e-007 -2.21477e-016)
(1.4476e-007 -1.13105e-007 -2.17156e-016)
(3.74863e-008 -2.60431e-008 4.26e-016)
(9.28189e-009 -5.86381e-009 -2.09e-016)
(2.21023e-009 -1.29075e-009 2.05147e-016)
(5.08007e-010 -2.78057e-010 -4.02869e-016)
(1.13261e-010 -5.86203e-011 2.9678e-016)
(2.43366e-011 -1.21705e-011 -1.81931e-029)
(5.28164e-012 -2.4091e-012 -9.553e-017)
(1.18699e-012 -5.01016e-013 9.39177e-017)
(2.29402e-013 -7.86868e-014 -1.38538e-016)
(-6.83222e-014 2.977e-014 1.65257e-032)
(-2.1632e-013 9.95922e-014 4.46958e-017)
(-5.1661e-013 1.48756e-013 0)
(0.0390002 -0.007838 -3.54002e-016)
(0.0119057 -0.00231859 7.13715e-016)
(0.00375296 -0.000692296 -7.19472e-016)
(0.0010873 -0.000191505 3.62666e-016)
(0.000306948 -5.12535e-005 0)
(8.23832e-005 -1.30382e-005 0)
(2.13579e-005 -3.19056e-006 1.85875e-016)
(5.32402e-006 -7.4854e-007 -5.6232e-016)
(1.28333e-006 -1.69054e-007 3.78063e-016)
(2.99179e-007 -3.67502e-008 0)
(6.76433e-008 -7.70222e-009 0)
(1.48506e-008 -1.55666e-009 0)
(3.17194e-009 -3.03474e-010 -9.78395e-017)
(6.59815e-010 -5.70885e-011 1.97415e-016)
(1.34368e-010 -1.03169e-011 -9.95905e-017)
(2.70172e-011 -1.8328e-012 1.0049e-016)
(5.57176e-012 -3.12348e-013 -5.07027e-017)
(1.58817e-012 -1.34136e-015 -1.02338e-016)
(2.59932e-013 4.94141e-014 5.16438e-017)
(4.70074e-013 1.29134e-013 0)
)
;

boundaryField
{
    inlet
    {
        type            zeroGradient;
    }
    outlet
    {
        type            zeroGradient;
    }
    bottom
    {
        type            symmetryPlane;
    }
    top
    {
        type            symmetryPlane;
    }
    obstacle
    {
        type            zeroGradient;
    }
    defaultFaces
    {
        type            empty;
    }
}


// ************************************************************************* //
