/*--------------------------------*- C++ -*----------------------------------*\
| =========                 |                                                 |
| \\      /  F ield         | OpenFOAM: The Open Source CFD Toolbox           |
|  \\    /   O peration     | Version:  5.x                                   |
|   \\  /    A nd           | Web:      www.OpenFOAM.org                      |
|    \\/     M anipulation  |                                                 |
\*---------------------------------------------------------------------------*/
/*   Windows 32 and 64 bit porting by blueCAPE: http://www.bluecape.com.pt   *\
|  Based on Windows porting (2.0.x v4) by Symscape: http://www.symscape.com   |
\*---------------------------------------------------------------------------*/
FoamFile
{
    version     2.0;
    format      ascii;
    class       volScalarField;
    location    "0.001";
    object      mag(U);
}
// * * * * * * * * * * * * * * * * * * * * * * * * * * * * * * * * * * * * * //

dimensions      [0 1 -1 0 0 0 0];

internalField   nonuniform List<scalar> 
100
(
0.0775437
1.55827
38.4144
186.333
40.7752
3.12721
0.0775437
1.55827
38.4144
186.333
40.7745
3.12643
0.0775437
1.55827
38.4144
186.333
40.7726
3.12488
0.0775437
1.55827
38.4144
186.333
40.7697
3.12289
0.0775437
1.55827
38.4144
186.333
40.7671
3.12311
0.0775437
1.55827
38.4144
186.333
40.758
3.44428
0.0775437
1.55827
38.4144
186.333
40.7551
3.44429
0.0775437
1.55827
38.4144
186.333
40.754
3.44519
0.0775437
1.55827
38.4144
186.333
40.7539
3.44523
0.0775437
1.55827
38.4144
186.333
40.7539
3.44524
0.43401
0.108854
0.439832
0.108843
0.442245
0.108854
0.442363
0.108858
0.442376
0.108859
8.33166e-005
4.84222e-006
1.11555e-007
0.00047948
2.79932e-005
6.43888e-007
0.00170444
0.000104569
2.08051e-006
0.00346472
0.000259593
4.24784e-006
0.00659283
0.000464352
6.66267e-006
0.0157934
0.0010463
1.35998e-005
0.0150306
0.00113795
1.42321e-005
0.0150184
0.00117959
1.46021e-005
0.0150194
0.00118091
1.46116e-005
0.0150195
0.00118105
1.46126e-005
)
;

boundaryField
{
    inlet
    {
        type            calculated;
        value           nonuniform List<scalar> 10(0.0775437 0.0775437 0.0775437 0.0775437 0.0775437 0.0775437 0.0775437 0.0775437 0.0775437 0.0775437);
    }
    outlet
    {
        type            calculated;
        value           nonuniform List<scalar> 10(1.35998e-005 1.42321e-005 1.46021e-005 1.46116e-005 1.46126e-005 1.11555e-007 6.43888e-007 2.08051e-006 4.24784e-006 6.66267e-006);
    }
    bottom
    {
        type            symmetryPlane;
    }
    top
    {
        type            symmetryPlane;
    }
    obstacle
    {
        type            calculated;
        value           nonuniform List<scalar> 
12
(
3.12721
3.12643
3.12488
3.12289
3.12311
8.33166e-005
0.00047948
0.00170444
0.00346472
0.00659283
0.43401
0.108854
)
;
    }
    defaultFaces
    {
        type            empty;
    }
}


// ************************************************************************* //
