/*--------------------------------*- C++ -*----------------------------------*\
| =========                 |                                                 |
| \\      /  F ield         | OpenFOAM: The Open Source CFD Toolbox           |
|  \\    /   O peration     | Version:  5.x                                   |
|   \\  /    A nd           | Web:      www.OpenFOAM.org                      |
|    \\/     M anipulation  |                                                 |
\*---------------------------------------------------------------------------*/
/*   Windows 32 and 64 bit porting by blueCAPE: http://www.bluecape.com.pt   *\
|  Based on Windows porting (2.0.x v4) by Symscape: http://www.symscape.com   |
\*---------------------------------------------------------------------------*/
FoamFile
{
    version     2.0;
    format      ascii;
    class       volScalarField;
    location    "0.001";
    object      p;
}
// * * * * * * * * * * * * * * * * * * * * * * * * * * * * * * * * * * * * * //

dimensions      [1 -1 -2 0 0 0 0];

internalField   nonuniform List<scalar> 
100
(
99987.6
98964.4
88537.6
24802.8
11371.2
10118.8
99987.6
98964.4
88537.6
24802.8
11371.2
10119.7
99987.6
98964.4
88537.6
24802.8
11371.2
10121.4
99987.6
98964.4
88537.6
24802.8
11371.1
10123.5
99987.6
98964.4
88537.6
24802.8
11371
10125.3
99987.6
98964.4
88537.6
24802.8
11370.7
10131.1
99987.6
98964.4
88537.6
24802.8
11370.6
10133.6
99987.6
98964.4
88537.6
24802.8
11370.5
10134.7
99987.6
98964.4
88537.6
24802.8
11370.5
10134.8
99987.6
98964.4
88537.6
24802.8
11370.5
10134.8
10018.6
10003.8
10018.7
10003.8
10018.7
10003.9
10018.7
10003.9
10018.7
10003.9
10000
10000
10000
10000
10000
10000
10000.1
10000
10000
10000.2
10000
10000
10000.2
10000
10000
10000.6
10000
10000
10000.7
10000
10000
10000.7
10000
10000
10000.7
10000
10000
10000.7
10000
10000
)
;

boundaryField
{
    inlet
    {
        type            zeroGradient;
    }
    outlet
    {
        type            zeroGradient;
    }
    bottom
    {
        type            symmetryPlane;
    }
    top
    {
        type            symmetryPlane;
    }
    obstacle
    {
        type            zeroGradient;
    }
    defaultFaces
    {
        type            empty;
    }
}


// ************************************************************************* //
