/*--------------------------------*- C++ -*----------------------------------*\
| =========                 |                                                 |
| \\      /  F ield         | OpenFOAM: The Open Source CFD Toolbox           |
|  \\    /   O peration     | Version:  5.x                                   |
|   \\  /    A nd           | Web:      www.OpenFOAM.org                      |
|    \\/     M anipulation  |                                                 |
\*---------------------------------------------------------------------------*/
/*   Windows 32 and 64 bit porting by blueCAPE: http://www.bluecape.com.pt   *\
|  Based on Windows porting (2.0.x v4) by Symscape: http://www.symscape.com   |
\*---------------------------------------------------------------------------*/
FoamFile
{
    version     2.0;
    format      ascii;
    class       surfaceScalarField;
    location    "0.001";
    object      phi;
}
// * * * * * * * * * * * * * * * * * * * * * * * * * * * * * * * * * * * * * //

dimensions      [1 0 -1 0 0 0 0];

internalField   nonuniform List<scalar> 
174
(
0.160348
3.21378e-011
5.48594
-4.47701e-009
25.8419
1.66489e-007
2.80666
-1.0799e-005
0.400797
5.0602e-005
-0.00204376
0.107231
1.57982e-010
3.66867
-1.16893e-008
17.2815
8.32399e-007
1.87692
-2.99597e-005
0.268032
0.000191416
-0.0060979
0.0717097
4.02792e-010
2.45339
-1.82277e-008
11.5568
2.21117e-006
1.25515
-5.2167e-005
0.179246
0.000459093
-0.0118343
0.0479552
5.92649e-010
1.64068
-2.1431e-008
7.72852
3.49277e-006
0.839356
-6.64282e-005
0.119867
0.000799984
-0.0175526
0.0320695
7.05839e-010
1.09719
-2.21365e-008
5.16837
4.37028e-006
0.561302
-7.39611e-005
0.0801589
0.00112231
-0.0223577
0.136116
2.64038e-010
4.65689
-9.95571e-009
21.9366
1.58667e-006
2.38223
-3.2127e-005
0.34366
0.000425755
-0.00928822
0.0196598
0.242052
3.96163e-011
8.28125
-2.63236e-009
39.0094
1.97225e-007
4.2362
-7.23023e-006
0.611227
4.69024e-005
-0.00142662
0.0351867
0.430435
7.72538e-012
14.7264
-3.67089e-010
69.3696
2.73387e-008
7.53308
-1.11526e-006
1.08701
7.19451e-006
-0.000235426
0.06274
0.765434
5.40901e-013
26.1876
-1.46674e-011
123.359
2.99686e-010
13.3959
-3.78313e-008
1.93302
1.53188e-007
-6.66565e-006
0.111584
1.36116
46.5689
219.366
23.8217
3.43745
0.198431
0.00500959
-1.51409e-005
-6.47818e-006
0.0011828
0.00898775
-7.33781e-006
-3.55985e-006
0.00210073
0.0160413
-1.26243e-006
-5.91547e-007
0.00373459
0.0285308
-4.62028e-008
-2.02801e-008
0.00664137
0.0507368
0.0118103
1.34382e-007
-1.0706e-005
5.73955e-008
-9.92596e-007
-1.35195e-007
4.98167e-007
-4.23597e-005
2.19589e-007
-4.41446e-006
-4.93284e-007
1.18961e-006
-0.000106061
5.36375e-007
-1.22095e-005
-1.13335e-006
2.03408e-006
-0.000194414
9.43007e-007
-2.46372e-005
-1.72337e-006
2.26312e-006
-0.000282378
1.06391e-006
-3.79668e-005
-2.12246e-006
0.000191795
-0.000103563
1.2544e-005
-1.31546e-005
-7.7257e-007
0.000342269
-9.43755e-006
2.46586e-005
-8.9385e-007
-1.10625e-007
0.000609679
-1.4192e-006
4.54172e-005
-1.27538e-007
-1.55633e-008
0.00108434
-2.66482e-008
8.08506e-005
-1.98309e-009
-3.42948e-010
0.00192828
0.00014379
)
;

boundaryField
{
    inlet
    {
        type            calculated;
        value           nonuniform List<scalar> 10(-0.0121555 -0.0216158 -0.038439 -0.0683552 -0.121555 -0.0143195 -0.009576 -0.00640386 -0.00428252 -0.00286389);
    }
    outlet
    {
        type            calculated;
        value           nonuniform List<scalar> 10(2.44325e-007 4.69127e-007 8.56068e-007 1.52331e-006 2.70903e-006 6.50102e-010 2.81599e-009 7.58646e-009 1.50811e-008 1.83042e-008);
    }
    bottom
    {
        type            symmetryPlane;
        value           uniform 0;
    }
    top
    {
        type            symmetryPlane;
        value           uniform 0;
    }
    obstacle
    {
        type            calculated;
        value           nonuniform List<scalar> 
12
(
0.0730979
0.048873
0.0326651
0.0218251
0.0145848
-8.96883e-008
-3.41602e-007
-8.3109e-007
-1.45286e-006
-1.63541e-006
1.20341e-005
4.39113e-006
)
;
    }
    defaultFaces
    {
        type            empty;
        value           nonuniform 0();
    }
}


// ************************************************************************* //
