/*--------------------------------*- C++ -*----------------------------------*\
| =========                 |                                                 |
| \\      /  F ield         | OpenFOAM: The Open Source CFD Toolbox           |
|  \\    /   O peration     | Version:  5.x                                   |
|   \\  /    A nd           | Web:      www.OpenFOAM.org                      |
|    \\/     M anipulation  |                                                 |
\*---------------------------------------------------------------------------*/
/*   Windows 32 and 64 bit porting by blueCAPE: http://www.bluecape.com.pt   *\
|  Based on Windows porting (2.0.x v4) by Symscape: http://www.symscape.com   |
\*---------------------------------------------------------------------------*/
FoamFile
{
    version     2.0;
    format      ascii;
    class       volScalarField;
    location    "0.001";
    object      T;
}
// * * * * * * * * * * * * * * * * * * * * * * * * * * * * * * * * * * * * * //

dimensions      [0 0 0 1 0 0 0];

internalField   nonuniform List<scalar> 
100
(
348.42
347.384
329.927
390.57
294.238
279.724
348.42
347.384
329.927
390.57
294.238
279.731
348.42
347.384
329.927
390.57
294.237
279.745
348.42
347.384
329.927
390.57
294.237
279.762
348.42
347.384
329.927
390.57
294.236
279.776
348.42
347.384
329.927
390.57
294.234
279.82
348.42
347.384
329.927
390.571
294.234
279.841
348.42
347.384
329.927
390.571
294.234
279.85
348.42
347.384
329.927
390.571
294.234
279.85
348.42
347.384
329.927
390.571
294.234
279.85
278.894
278.776
278.895
278.777
278.895
278.777
278.895
278.777
278.895
278.777
278.746
278.746
278.746
278.746
278.746
278.746
278.747
278.746
278.746
278.747
278.746
278.746
278.748
278.746
278.746
278.751
278.746
278.746
278.751
278.746
278.746
278.752
278.746
278.746
278.752
278.746
278.746
278.752
278.746
278.746
)
;

boundaryField
{
    inlet
    {
        type            zeroGradient;
    }
    outlet
    {
        type            zeroGradient;
    }
    bottom
    {
        type            symmetryPlane;
    }
    top
    {
        type            symmetryPlane;
    }
    obstacle
    {
        type            zeroGradient;
    }
    defaultFaces
    {
        type            empty;
    }
}


// ************************************************************************* //
