/*--------------------------------*- C++ -*----------------------------------*\
| =========                 |                                                 |
| \\      /  F ield         | OpenFOAM: The Open Source CFD Toolbox           |
|  \\    /   O peration     | Version:  5.x                                   |
|   \\  /    A nd           | Web:      www.OpenFOAM.org                      |
|    \\/     M anipulation  |                                                 |
\*---------------------------------------------------------------------------*/
/*   Windows 32 and 64 bit porting by blueCAPE: http://www.bluecape.com.pt   *\
|  Based on Windows porting (2.0.x v4) by Symscape: http://www.symscape.com   |
\*---------------------------------------------------------------------------*/
FoamFile
{
    version     2.0;
    format      ascii;
    class       volVectorField;
    location    "0.001";
    object      U;
}
// * * * * * * * * * * * * * * * * * * * * * * * * * * * * * * * * * * * * * //

dimensions      [0 1 -1 0 0 0 0];

internalField   nonuniform List<vector> 
100
(
(0.0775437 1.58157e-012 0)
(1.55827 -4.88766e-010 0)
(38.4144 1.53141e-008 0)
(186.333 -9.73578e-006 0)
(40.7752 8.90311e-005 0)
(3.12721 -0.0059185 0)
(0.0775437 1.30043e-011 0)
(1.55827 -2.15655e-009 0)
(38.4144 1.36682e-007 0)
(186.333 -4.425e-005 0)
(40.7745 0.000497578 0)
(3.12631 -0.0277177 0)
(0.0775437 5.41396e-011 0)
(1.55827 -4.27825e-009 0)
(38.4144 5.82929e-007 0)
(186.333 -9.88087e-005 0)
(40.7726 0.00166785 0)
(3.12409 -0.0703058 0)
(0.0775437 1.00588e-010 0)
(1.55827 -5.78829e-009 0)
(38.4144 1.17495e-006 0)
(186.333 -0.000145495 0)
(40.7697 0.00324927 0)
(3.12077 -0.114818 0)
(0.0775437 1.42443e-010 0)
(1.55827 -6.39773e-009 0)
(38.4144 1.77839e-006 0)
(186.333 -0.00018049 0)
(40.7671 0.00585488 0)
(3.11807 -0.177314 0)
(0.0775437 9.58916e-011 0)
(1.55827 -4.34854e-009 0)
(38.4144 1.186e-006 0)
(186.333 -0.00012412 0)
(40.758 0.00422751 0)
(3.44195 -0.126519 0)
(0.0775437 1.40235e-011 0)
(1.55827 -1.33562e-009 0)
(38.4144 1.44345e-007 0)
(186.333 -3.0069e-005 0)
(40.7551 0.000440903 0)
(3.44424 -0.0190725 0)
(0.0775437 3.08751e-012 0)
(1.55827 -2.15422e-010 0)
(38.4144 2.35858e-008 0)
(186.333 -5.41237e-006 0)
(40.754 7.99872e-005 0)
(3.44518 -0.00369933 0)
(0.0775437 2.73564e-013 0)
(1.55827 -8.75762e-012 0)
(38.4144 2.55267e-010 0)
(186.333 -1.83901e-007 0)
(40.7539 1.68458e-006 0)
(3.44523 -0.000104395 0)
(0.0775437 -9.50116e-014 0)
(1.55827 -2.44204e-013 0)
(38.4144 1.22892e-011 0)
(186.333 -9.86465e-009 0)
(40.7539 9.22387e-008 0)
(3.44524 -6.06671e-006 0)
(0.43401 -0.000408019 0)
(0.108854 -0.000152865 0)
(0.439832 -0.000383254 0)
(0.108842 -0.000188835 0)
(0.442245 -7.8417e-005 0)
(0.108854 -3.71847e-005 0)
(0.442363 -2.87137e-006 0)
(0.108858 -1.27182e-006 0)
(0.442376 -1.65901e-007 0)
(0.108859 -7.1492e-008 0)
(4.22437e-006 -8.32095e-005 0)
(4.25553e-006 -2.31032e-006 0)
(3.11644e-008 -1.07114e-007 0)
(2.37416e-005 -0.000478892 0)
(2.39408e-005 -1.45072e-005 0)
(1.99249e-007 -6.12284e-007 0)
(8.56116e-005 -0.00170228 0)
(8.6407e-005 -5.88935e-005 0)
(7.95745e-007 -1.92232e-006 0)
(0.000221545 -0.00345763 0)
(0.000223885 -0.000131393 0)
(2.34061e-006 -3.54481e-006 0)
(0.000371038 -0.00658238 0)
(0.000374856 -0.000274053 0)
(4.22451e-006 -5.15216e-006 0)
(0.0150579 -0.00476336 0)
(0.00102708 -0.000199641 0)
(1.31596e-005 -3.4321e-006 0)
(0.0150252 -0.000402326 0)
(0.00113788 -1.23286e-005 0)
(1.42238e-005 -4.8595e-007 0)
(0.0150182 -7.14605e-005 0)
(0.00117959 -2.08054e-006 0)
(1.46019e-005 -7.99944e-008 0)
(0.0150194 -1.32091e-006 0)
(0.00118091 -3.17129e-008 0)
(1.46116e-005 -1.74194e-009 0)
(0.0150195 -7.09999e-008 0)
(0.00118105 -1.62476e-009 0)
(1.46126e-005 -8.72121e-011 0)
)
;

boundaryField
{
    inlet
    {
        type            zeroGradient;
    }
    outlet
    {
        type            zeroGradient;
    }
    bottom
    {
        type            symmetryPlane;
    }
    top
    {
        type            symmetryPlane;
    }
    obstacle
    {
        type            zeroGradient;
    }
    defaultFaces
    {
        type            empty;
    }
}


// ************************************************************************* //
