/*--------------------------------*- C++ -*----------------------------------*\
| =========                 |                                                 |
| \\      /  F ield         | OpenFOAM: The Open Source CFD Toolbox           |
|  \\    /   O peration     | Version:  5.x                                   |
|   \\  /    A nd           | Web:      www.OpenFOAM.org                      |
|    \\/     M anipulation  |                                                 |
\*---------------------------------------------------------------------------*/
/*   Windows 32 and 64 bit porting by blueCAPE: http://www.bluecape.com.pt   *\
|  Based on Windows porting (2.0.x v4) by Symscape: http://www.symscape.com   |
\*---------------------------------------------------------------------------*/
FoamFile
{
    version     2.0;
    format      ascii;
    class       surfaceScalarField;
    location    "0.005";
    object      phi;
}
// * * * * * * * * * * * * * * * * * * * * * * * * * * * * * * * * * * * * * //

dimensions      [1 0 -1 0 0 0 0];

internalField   nonuniform List<scalar> 
19740
(
6.72537e-009
1.4122e-013
4.52175e-008
-3.6815e-013
2.88815e-007
-3.8769e-013
1.66712e-006
5.10703e-014
9.08972e-006
-1.40554e-012
4.49551e-005
-2.85105e-013
0.000206702
-1.92735e-013
0.00086192
1.04761e-012
0.00327872
-7.63833e-013
0.0112516
3.55271e-015
0.0331932
2.82441e-013
0.0849931
1.30429e-012
0.188258
1.00808e-012
0.36556
7.64278e-013
0.614348
-4.85834e-013
0.905944
-6.94556e-013
1.19888
-1.25677e-013
1.4644
1.19282e-012
1.69289
-3.04201e-014
1.88211
1.11244e-013
2.04048
2.94431e-013
2.16079
2.2804e-013
2.25606
2.66676e-013
2.34489
-2.36255e-013
2.39614
-1.02029e-013
2.41866
-1.44884e-013
2.45002
5.75096e-014
2.48705
8.20455e-014
2.50034
-6.25056e-014
2.49097
-1.09912e-014
2.46841
7.90479e-014
2.44642
-9.05942e-014
2.44867
-2.20934e-013
2.46918
3.29181e-014
2.48244
-5.44564e-014
2.4896
1.30729e-013
2.49351
-2.15727e-012
2.49381
-2.74691e-012
2.47613
-3.201e-012
2.38078
-4.8419e-012
2.14158
-6.79085e-012
1.934
-9.71373e-012
1.78382
-1.36426e-011
1.68519
-2.43879e-011
1.62162
-5.52864e-011
1.58362
-1.98783e-010
1.56207
-2.64292e-009
1.55566
-7.02788e-009
1.55652
-2.35331e-008
1.53304
-2.29367e-007
1.53383
2.19762e-006
1.53666
-0.000216127
1.54263
-0.000735735
1.53843
-0.00132441
1.53666
-0.00202388
1.54702
-0.00309359
1.54397
-0.00372141
1.53128
-0.00494381
1.54728
-0.00724245
-0.0122432
6.50806e-009
-1.13376e-012
4.37564e-008
-5.9952e-013
2.79483e-007
-4.44089e-016
1.61325e-006
1.29718e-012
8.79601e-006
-2.79643e-012
4.35025e-005
-4.37872e-013
0.000200023
-5.26246e-013
0.00083407
1.03739e-012
0.00317278
-1.62226e-012
0.010888
8.45102e-013
0.0321206
5.06262e-013
0.0822468
1.90203e-012
0.182175
1.15286e-012
0.353748
1.20215e-012
0.594497
-1.81632e-013
0.876671
-6.5592e-013
1.16014
-6.63247e-013
1.41708
1.3114e-012
1.63819
6.6569e-013
1.82129
6.09512e-013
1.97454
-9.74776e-014
2.09097
8.88178e-015
2.18316
2.97429e-013
2.26912
9.88098e-014
2.31871
-1.62759e-013
2.34051
-1.5743e-013
2.37085
5.65104e-014
2.40669
-1.07025e-013
2.41955
-1.39555e-013
2.41048
-1.50657e-013
2.38865
1.61759e-013
2.36738
6.07292e-014
2.36955
-1.46272e-013
2.3894
-4.54636e-014
2.40223
-9.33142e-014
2.40915
1.94733e-013
2.41294
-4.35058e-012
2.41323
-5.3903e-012
2.39612
-6.27548e-012
2.30385
-9.57678e-012
2.07238
-1.35889e-011
1.87151
-1.96316e-011
1.72619
-2.74156e-011
1.63074
-4.87491e-011
1.56922
-1.1174e-010
1.53245
-4.03236e-010
1.5116
-5.34307e-009
1.5054
-1.4909e-008
1.50622
-5.05833e-008
1.4835
-4.59533e-007
1.48428
4.39395e-006
1.48663
-0.000493856
1.49245
-0.00154034
1.48811
-0.003008
1.48571
-0.00427978
1.49709
-0.00595171
1.49391
-0.00747677
1.48155
-0.0100557
1.49992
-0.0154031
-0.024429
6.29777e-009
-2.84262e-012
4.23425e-008
-3.06866e-013
2.70452e-007
-1.23901e-013
1.56112e-006
1.00275e-012
8.51179e-006
-3.89244e-012
4.20968e-005
-6.43041e-013
0.00019356
-2.54463e-013
0.000807119
1.1191e-012
0.00307026
-2.06457e-012
0.0105362
2.03615e-012
0.0310827
7.50067e-013
0.0795893
2.18181e-012
0.176289
1.13776e-012
0.342317
1.40021e-012
0.575287
3.12639e-013
0.848344
-2.12275e-013
1.12265
-4.93161e-013
1.37129
2.14517e-012
1.58526
8.44214e-013
1.76244
5.06262e-013
1.91074
-2.03171e-013
2.02341
1.11022e-015
2.11261
3.6926e-013
2.1958
-8.23785e-014
2.24379
-1.78968e-013
2.26488
-1.72529e-013
2.29425
-4.31877e-014
2.32893
1.98841e-013
2.34137
-1.40443e-013
2.3326
-2.09055e-013
2.31146
2.67231e-013
2.29088
1.01474e-013
2.29298
-1.42275e-013
2.31219
-1.56264e-013
2.32461
-1.73639e-013
2.33131
2.22045e-013
2.33497
-6.48043e-012
2.33525
-8.07782e-012
2.31869
-9.49951e-012
2.22941
-1.4545e-011
2.00542
-2.07913e-011
1.81104
-2.9692e-011
1.67041
-4.15856e-011
1.57805
-7.4442e-011
1.51852
-1.74134e-010
1.48293
-6.28106e-010
1.46276
-8.15477e-009
1.45675
-2.40074e-008
1.45756
-9.10583e-008
1.43556
-7.71285e-007
1.43635
6.78912e-006
1.43786
-0.000898774
1.44313
-0.00256475
1.43865
-0.00516975
1.43566
-0.00644898
1.44879
-0.008542
1.44585
-0.0117733
1.43532
-0.0171062
1.44899
-0.0274574
-0.0310899
6.09427e-009
-4.05365e-012
4.09743e-008
-1.40199e-012
2.61713e-007
9.41469e-014
1.51068e-006
5.18696e-013
8.23676e-006
-4.01901e-012
4.07366e-005
-2.08056e-012
0.000187306
-2.9976e-013
0.00078104
1.27942e-012
0.00297105
-1.73594e-012
0.0101957
2.8022e-012
0.0300784
3.61933e-013
0.0770176
3.04867e-012
0.170592
1.56986e-012
0.331256
1.52456e-012
0.556699
1.43707e-012
0.820932
-3.71259e-013
1.08638
-3.4861e-013
1.32698
1.39333e-012
1.53403
1.34537e-012
1.70549
6.05072e-013
1.849
-5.49782e-013
1.95803
-2.35811e-013
2.04435
1.78746e-013
2.12485
-7.52731e-014
2.17129
-2.91323e-013
2.1917
-1.57985e-013
2.22011
-1.57097e-013
2.25367
1.94067e-013
2.26571
-2.63345e-013
2.25722
-1.48326e-013
2.23678
6.22835e-014
2.21686
1.08802e-013
2.21889
-1.39777e-013
2.23748
-1.04639e-013
2.24949
-1.76137e-013
2.25598
2.57294e-013
2.25953
-8.64403e-012
2.25979
-1.08642e-011
2.24377
-1.26946e-011
2.15737
-1.98465e-011
1.94062
-2.80302e-011
1.75252
-4.0364e-011
1.61643
-5.73326e-011
1.52706
-1.03289e-010
1.46945
-2.46465e-010
1.43501
-8.86413e-010
1.41549
-1.11238e-008
1.40968
-3.2408e-008
1.41046
-1.15751e-007
1.38918
-6.67518e-007
1.38999
-2.98172e-005
1.39029
-0.0013693
1.39488
-0.00390423
1.39159
-0.00725425
1.38719
-0.00846063
1.40163
-0.0105836
1.39993
-0.0169369
1.39268
-0.024337
1.39442
-0.0351932
-0.0388127
5.89736e-009
-4.09273e-012
3.96504e-008
-1.98863e-012
2.53257e-007
1.07692e-012
1.46186e-006
2.5091e-013
7.97061e-006
-4.0643e-012
3.94203e-005
-3.21876e-012
0.000181253
-2.06946e-013
0.000755803
1.37179e-012
0.00287505
-1.49658e-012
0.0098663
2.91278e-012
0.0291065
1.02141e-013
0.074529
3.31202e-012
0.16508
1.80833e-012
0.320553
2.08589e-012
0.53871
1.84164e-012
0.794406
-8.13571e-013
1.05127
1.9984e-013
1.28411
1.65046e-012
1.48447
2.91989e-013
1.65039
1.04183e-012
1.78926
-4.62963e-013
1.89476
-5.17142e-013
1.97829
4.30767e-014
2.05619
1.35114e-013
2.10113
-7.11653e-014
2.12088
-1.80411e-013
2.14838
1.51879e-013
2.18085
1.46771e-013
2.1925
-3.04312e-013
2.18429
-2.76557e-013
2.1645
-8.54872e-014
2.14523
1.9762e-014
2.14719
-2.66565e-013
2.16518
-9.61453e-014
2.17681
-1.72695e-013
2.18308
3.81806e-013
2.18652
-1.10411e-011
2.18677
-1.34536e-011
2.17127
-1.57611e-011
2.08767
-2.52312e-011
1.87792
-3.55848e-011
1.69589
-5.1993e-011
1.5642
-7.49995e-011
1.47771
-1.35813e-010
1.42197
-3.30531e-010
1.38864
-1.18827e-009
1.36975
-1.43576e-008
1.36413
-4.02498e-008
1.36488
6.70548e-008
1.34429
1.98306e-006
1.34513
-0.000207368
1.34421
-0.00152197
1.34862
-0.00503993
1.34661
-0.00850347
1.34253
-0.0104978
1.3512
-0.0125911
1.35568
-0.0207808
1.35159
-0.029888
1.34818
-0.0398655
-0.0444333
5.7068e-009
-2.86304e-012
3.83692e-008
-2.05613e-012
2.45074e-007
1.15463e-012
1.41463e-006
2.31815e-013
7.71306e-006
-4.55103e-012
3.81466e-005
-4.20464e-012
0.000175397
-7.0699e-013
0.000731381
1.62714e-012
0.00278215
-1.57163e-012
0.0095475
3.1406e-012
0.028166
1.13687e-013
0.0721208
4.6394e-012
0.159746
1.6267e-012
0.310195
1.7395e-012
0.521304
1.95843e-012
0.768737
-1.97176e-013
1.0173
-2.27818e-013
1.24261
1.36358e-012
1.4365
4.61631e-013
1.59706
9.0572e-013
1.73144
-2.8999e-013
1.83354
-1.83187e-013
1.91437
9.37028e-014
1.98975
1.70974e-013
2.03324
8.65974e-015
2.05235
-1.73195e-014
2.07896
2.08389e-013
2.11039
4.91829e-014
2.12166
-3.97349e-013
2.11371
-2.4214e-013
2.09456
-1.65978e-013
2.07591
-3.70814e-014
2.07781
-2.09277e-013
2.09522
-2.3237e-013
2.10647
-1.36335e-013
2.11254
4.96769e-013
2.11587
-1.34822e-011
2.11611
-1.59123e-011
2.10111
-1.88416e-011
2.02021
-3.10887e-011
1.81724
-4.41442e-011
1.64109
-6.50321e-011
1.51366
-9.43166e-011
1.42997
-1.71695e-010
1.37602
-4.34635e-010
1.34377
-1.54696e-009
1.32549
-1.74295e-008
1.32006
-6.67272e-008
1.32078
5.11673e-007
1.30087
8.87431e-006
1.30068
-0.000551323
1.30096
-0.00169454
1.30487
-0.00563948
1.30344
-0.00960807
1.30281
-0.0118862
1.30174
-0.0172771
1.31468
-0.0230006
1.31464
-0.034143
1.3163
-0.0381034
-0.0458443
5.52241e-009
-9.27258e-013
3.71294e-008
-1.58007e-012
2.37155e-007
1.30829e-012
1.36892e-006
6.75904e-013
7.46384e-006
-4.79261e-012
3.6914e-005
-4.80682e-012
0.000169729
-1.05427e-012
0.000707749
1.68976e-012
0.00269226
-2.04592e-012
0.009239
2.84084e-012
0.0272559
-2.99316e-013
0.0697904
4.52438e-012
0.154584
1.75504e-012
0.300172
1.95799e-012
0.504459
1.82787e-012
0.743898
-1.64757e-013
0.984433
-2.17604e-014
1.20246
1.37623e-012
1.39008
2.46914e-013
1.54545
5.47118e-013
1.6755
-2.59792e-014
1.77429
-5.79536e-014
1.85251
4.96936e-013
1.92546
8.77076e-014
1.96754
-8.06022e-014
1.98603
1.73528e-013
2.01178
-2.56462e-013
2.04219
4.85167e-014
2.05311
-4.442e-013
2.04541
-2.9432e-013
2.02688
-4.996e-015
2.00883
-5.9952e-015
2.01068
-2.41362e-013
2.02752
-1.06248e-013
2.03841
-2.83884e-013
2.04428
5.07205e-013
2.0475
-1.55456e-011
2.04774
-1.84692e-011
2.03322
-2.20789e-011
1.95493
-3.76452e-011
1.75852
-5.37552e-011
1.58807
-7.86737e-011
1.46475
-1.14195e-010
1.38376
-2.12564e-010
1.33156
-5.83268e-010
1.30035
-1.9851e-009
1.28266
-1.8126e-008
1.2774
-1.62368e-007
1.27812
1.24318e-006
1.25889
2.21716e-005
1.25694
-0.000983579
1.25939
-0.00229506
1.26204
-0.0064459
1.26169
-0.0106217
1.2629
-0.013647
1.26508
-0.0199074
1.26198
-0.0242223
1.27343
-0.0294593
1.27565
-0.0381968
-0.0470167
5.34396e-009
1.27365e-012
3.59297e-008
-8.88178e-013
2.29492e-007
1.70619e-012
1.32469e-006
7.63389e-013
7.22267e-006
-4.90941e-012
3.57212e-005
-4.54348e-012
0.000164245
-8.01137e-013
0.00068488
2.10632e-012
0.00260526
-1.75016e-012
0.00894046
2.38298e-012
0.0263752
-4.81393e-013
0.0675353
4.17932e-012
0.149589
2.60458e-012
0.290473
1.75104e-012
0.488159
1.56852e-012
0.719861
-1.19016e-013
0.952624
2.65121e-013
1.16361
8.92175e-013
1.34517
-1.23901e-013
1.49552
3.50608e-013
1.62136
-3.2907e-013
1.71696
-1.48326e-013
1.79266
5.61773e-013
1.86324
1.85185e-013
1.90396
-7.04992e-014
1.92186
9.25926e-014
1.94678
-1.96176e-013
1.97621
-4.20775e-014
1.98676
-4.41203e-013
1.97932
-3.07643e-013
1.96139
1.13354e-013
1.94392
-2.86438e-014
1.94571
-2.23266e-013
1.962
-1.5854e-013
1.97254
-2.79887e-013
1.97823
6.26998e-013
1.98134
-1.74208e-011
1.98157
-2.09622e-011
1.96752
-2.52178e-011
1.89176
-4.46209e-011
1.7017
-6.35295e-011
1.53675
-9.27767e-011
1.41742
-1.36065e-010
1.33905
-2.64121e-010
1.28853
-7.94678e-010
1.25834
-2.49255e-009
1.24122
-1.36509e-008
1.23613
-3.89361e-007
1.23683
2.10392e-006
1.21827
4.38257e-005
1.21489
-0.00175061
1.2185
-0.00335659
1.22106
-0.00707925
1.22104
-0.0103673
1.22015
-0.0130597
1.22344
-0.0182747
1.22182
-0.0229257
1.23229
-0.0277166
1.23202
-0.0406846
-0.0509086
5.17129e-009
2.09965e-012
3.47687e-008
-5.69322e-013
2.22076e-007
3.2756e-012
1.28188e-006
1.4424e-012
6.98929e-006
-5.21183e-012
3.4567e-005
-3.91509e-012
0.000158938
-6.20837e-013
0.00066275
3.21254e-012
0.00252108
-1.37046e-012
0.00865158
2.37144e-012
0.025523
-1.21458e-012
0.0653531
4.22462e-012
0.144756
2.58282e-012
0.281087
1.46771e-012
0.472386
1.62359e-012
0.696601
2.55795e-013
0.921842
9.9476e-014
1.12601
1.68932e-012
1.3017
-9.28146e-014
1.44719
5.7776e-013
1.56897
-7.363e-013
1.66148
-9.99201e-014
1.73473
5.61107e-013
1.80303
-1.70308e-013
1.84244
-2.0528e-013
1.85976
-1.52989e-013
1.88387
-2.22933e-013
1.91235
-2.99538e-013
1.92257
-3.79585e-013
1.91536
-2.87659e-013
1.89801
4.84057e-014
1.88111
6.90559e-014
1.88284
-1.98841e-013
1.89861
-2.89324e-013
1.9088
-2.911e-013
1.91431
7.96918e-013
1.91732
-1.91825e-011
1.91754
-2.34477e-011
1.90395
-2.84004e-011
1.83064
-5.14718e-011
1.64671
-7.32194e-011
1.4871
-1.07976e-010
1.37162
-1.61646e-010
1.29578
-3.28073e-010
1.2469
-1.06082e-009
1.21768
-3.11802e-009
1.20111
-5.48924e-009
1.19618
-6.8483e-007
1.19689
1.8438e-006
1.17895
5.72235e-005
1.17463
-0.0021849
1.17813
-0.00395935
1.1819
-0.00641198
1.18147
-0.00981474
1.17866
-0.0120372
1.18296
-0.0161597
1.1859
-0.0221899
1.19269
-0.027416
1.191
-0.0409117
-0.0574221
5.00419e-009
3.18146e-012
3.36453e-008
-9.69003e-013
2.14901e-007
4.5155e-012
1.24046e-006
1.64313e-012
6.76345e-006
-5.13278e-012
3.345e-005
-2.95897e-012
0.000153802
-4.96048e-013
0.000641335
3.80718e-012
0.00243962
-3.92575e-013
0.00837203
1.81455e-012
0.0246983
-7.72715e-013
0.0632414
4.70779e-012
0.140078
1.80744e-012
0.272004
7.30083e-013
0.457122
1.89759e-012
0.674092
2.39808e-014
0.892056
-1.74083e-013
1.08963
1.52944e-012
1.25964
3.25739e-013
1.40043
2.86882e-013
1.51827
-5.1692e-013
1.6078
-2.83551e-013
1.67868
5.96856e-013
1.74477
-3.1819e-013
1.78291
-3.96572e-013
1.79967
-1.72973e-013
1.823
-2.72005e-013
1.85056
-4.72733e-013
1.86045
-3.10862e-013
1.85347
-3.9202e-013
1.83668
1.39888e-014
1.82033
9.13714e-014
1.822
-2.2693e-013
1.83726
-2.56462e-013
1.84713
-2.58127e-013
1.85245
9.47797e-013
1.85536
-2.07527e-011
1.85558
-2.57248e-011
1.84243
-3.14883e-011
1.77148
-5.83527e-011
1.5935
-8.40327e-011
1.43904
-1.25636e-010
1.3273
-1.91005e-010
1.25391
-3.99837e-010
1.20661
-1.36408e-009
1.17833
-3.94826e-009
1.1623
6.32559e-011
1.15753
-8.59033e-007
1.15824
1.07857e-006
1.14088
5.77762e-005
1.13605
-0.00204295
1.13916
-0.0036999
1.14364
-0.00616075
1.14423
-0.00854735
1.13946
-0.0110223
1.14299
-0.0146701
1.15034
-0.0224544
1.15442
-0.0305579
1.15494
-0.0430457
-0.0561216
4.8425e-009
3.87868e-012
3.25581e-008
-1.17506e-012
2.07957e-007
5.5822e-012
1.20038e-006
3.11129e-012
6.54491e-006
-4.68869e-012
3.23692e-005
-2.11298e-012
0.000148833
-3.75699e-013
0.000620612
3.73168e-012
0.00236079
-2.70894e-014
0.00810151
1.00497e-012
0.0239002
-5.73763e-013
0.061198
3.81384e-012
0.135552
1.84741e-012
0.263215
9.28146e-013
0.442351
1.37268e-012
0.652311
-7.86038e-014
0.863232
6.06182e-013
1.05442
1.52012e-012
1.21894
-5.54001e-013
1.35518
1.20348e-013
1.46921
-9.40803e-013
1.55585
-2.7045e-013
1.62444
7.51399e-013
1.6884
-2.71116e-013
1.7253
-4.50084e-013
1.74152
-3.63265e-013
1.7641
-2.59015e-013
1.79076
-5.18363e-013
1.80033
-4.13669e-013
1.79358
-4.48863e-013
1.77734
3.35287e-014
1.76151
6.10623e-015
1.76313
-2.62124e-013
1.77789
-3.1386e-013
1.78744
-3.17302e-013
1.7926
1.03262e-012
1.79541
-2.2071e-011
1.79562
-2.79806e-011
1.78289
-3.46907e-011
1.71424
-6.61379e-011
1.54201
-9.63796e-011
1.39255
-1.44896e-010
1.28441
-2.22735e-010
1.21339
-4.79345e-010
1.16762
-1.70265e-009
1.14026
-4.98185e-009
1.12475
1.15346e-009
1.12013
-8.60321e-007
1.12083
8.60062e-007
1.10402
5.53053e-005
1.09919
-0.00169171
1.10179
-0.00313522
1.10659
-0.00578669
1.10689
-0.00746175
1.10345
-0.0111256
1.10495
-0.0151903
1.11616
-0.0231187
1.11711
-0.0325913
1.11235
-0.0422587
-0.053735
4.68602e-009
3.76321e-012
3.15061e-008
-9.77884e-013
2.01237e-007
7.40297e-012
1.16159e-006
3.04556e-012
6.33343e-006
-4.15934e-012
3.13233e-005
-1.05072e-012
0.000144024
-7.29194e-013
0.000600559
3.22231e-012
0.00228451
-3.07754e-013
0.00783973
3.12195e-013
0.023128
-7.45626e-013
0.0592205
3.05267e-012
0.131172
1.82565e-012
0.25471
1.0405e-012
0.428058
1.07381e-012
0.631233
4.59188e-013
0.835339
8.71747e-013
1.02035
1.46727e-012
1.17955
-3.20632e-013
1.31139
3.13083e-014
1.42174
-9.91873e-013
1.50557
-1.1191e-013
1.57195
8.50875e-013
1.63384
-4.12781e-013
1.66955
-5.72431e-013
1.68524
-4.14113e-013
1.70709
-6.52811e-013
1.7329
-1.97842e-013
1.74216
-5.80425e-013
1.73563
-4.14113e-013
1.71991
5.07372e-014
1.70459
-1.34781e-013
1.70616
-3.37175e-013
1.72045
-2.25264e-013
1.72969
-3.48943e-013
1.73467
1.19871e-012
1.7374
-2.30246e-011
1.7376
-3.0188e-011
1.72529
-3.81564e-011
1.65885
-7.48092e-011
1.49219
-1.10406e-010
1.34755
-1.66948e-010
1.24291
-2.58214e-010
1.17419
-5.65932e-010
1.12989
-2.04414e-009
1.10341
-6.08629e-009
1.0884
-6.20365e-010
1.08393
-7.94269e-007
1.08463
1.18003e-006
1.06835
5.61963e-005
1.06384
-0.00147834
1.06595
-0.0027954
1.07079
-0.00509115
1.06989
-0.00696366
1.07028
-0.0123944
1.06872
-0.0170711
1.07889
-0.0209302
1.07979
-0.0305852
1.07457
-0.039845
-0.0544477
4.53461e-009
3.24629e-012
3.04881e-008
-4.36984e-013
1.94735e-007
7.97762e-012
1.12406e-006
3.97549e-012
6.12878e-006
-4.0794e-012
3.03112e-005
-2.79776e-013
0.00013937
-1.4122e-012
0.000581153
3.4488e-012
0.00221069
-1.07292e-012
0.00758641
3.62821e-013
0.0223806
-1.27587e-012
0.057307
2.88614e-012
0.126934
1.97975e-012
0.24648
1.04938e-012
0.414226
1.30607e-012
0.610837
2.13607e-013
0.808347
8.69083e-013
0.987378
1.24523e-012
1.14144
-2.14051e-013
1.26902
1.64313e-013
1.3758
-9.82769e-013
1.45692
6.12843e-014
1.52115
7.77156e-013
1.58105
-3.74811e-013
1.6156
-3.21521e-013
1.63079
-3.04201e-013
1.65193
-4.81615e-013
1.67691
-3.45834e-013
1.68587
-5.57554e-013
1.67955
-2.76557e-013
1.66433
-7.77156e-015
1.64951
-5.54001e-014
1.65103
-4.19886e-013
1.66485
-2.47691e-013
1.6738
-3.5083e-013
1.67862
1.244e-012
1.68126
-2.36158e-011
1.68146
-3.24136e-011
1.66954
-4.1748e-011
1.60525
-8.46239e-011
1.44397
-1.26884e-010
1.30401
-1.93287e-010
1.20275
-2.9952e-010
1.13625
-6.58906e-010
1.09338
-2.35856e-009
1.06776
-7.12013e-009
1.05323
-4.16004e-009
1.04891
-7.49372e-007
1.0496
1.28989e-006
1.03384
5.95602e-005
1.02968
-0.00145144
1.03147
-0.0028429
1.03696
-0.00477305
1.03562
-0.00683204
1.03759
-0.0115371
1.03454
-0.0154217
1.03442
-0.0198596
1.04416
-0.028753
1.0405
-0.0383512
-0.0544417
4.38808e-009
2.51887e-012
2.95029e-008
2.43361e-013
1.88443e-007
8.30536e-012
1.08774e-006
4.68603e-012
5.93075e-006
-4.27569e-012
2.93317e-005
2.85993e-013
0.000134866
-1.23901e-012
0.000562375
3.01359e-012
0.00213926
-1.31539e-012
0.00734128
2.35367e-013
0.0216575
-1.79012e-012
0.0554553
2.9412e-012
0.122832
2.36833e-012
0.238516
1.23945e-012
0.400842
1.24123e-012
0.591099
-3.86358e-013
0.782228
1.1382e-012
0.955474
8.35332e-013
1.10456
-2.57572e-014
1.22801
4.51639e-013
1.33134
-8.91287e-013
1.40985
4.64073e-014
1.472
7.99139e-013
1.52996
-1.99396e-013
1.5634
-4.95382e-013
1.5781
-4.23439e-013
1.59856
-4.48086e-013
1.62272
-4.28435e-013
1.63139
-5.08371e-013
1.62528
-2.75335e-013
1.61056
-6.91669e-014
1.59621
-1.28786e-013
1.59768
-3.04312e-013
1.61106
-3.61045e-013
1.61971
-4.05898e-013
1.62438
1.27287e-012
1.62694
-2.38597e-011
1.62713
-3.50338e-011
1.61559
-4.59874e-011
1.55338
-9.61727e-011
1.39731
-1.4613e-010
1.26187
-2.23874e-010
1.16389
-3.46993e-010
1.09953
-7.56838e-010
1.05805
-2.63524e-009
1.03326
-8.01032e-009
1.0192
-8.63396e-009
1.01502
-7.55727e-007
1.01571
6.99802e-007
1.00044
5.81954e-005
0.996533
-0.00140205
0.998419
-0.00317911
1.00435
-0.00479269
1.00247
-0.00608803
1.00244
-0.00981
1.00257
-0.0123718
0.999185
-0.0184009
1.01031
-0.0279422
1.00637
-0.0378932
-0.0532515
4.2463e-009
1.88827e-012
2.85496e-008
2.54907e-013
1.82354e-007
9.16689e-012
1.05259e-006
5.2216e-012
5.73911e-006
-3.82094e-012
2.8384e-005
4.11227e-013
0.000130509
-8.95284e-013
0.000544204
2.40874e-012
0.00207014
-1.19282e-012
0.00710407
1.66089e-013
0.0209577
-1.77902e-012
0.0536634
2.8364e-012
0.118863
2.73115e-012
0.230809
1.65112e-012
0.38789
1.37357e-012
0.572
-6.06626e-013
0.756952
9.6545e-013
0.9246
1.17817e-012
1.06887
-6.66134e-015
1.18833
3.93019e-013
1.28833
-7.77156e-013
1.36429
3.68594e-014
1.42444
5.73541e-013
1.48053
-2.6934e-013
1.51288
-6.03517e-013
1.5271
-4.57634e-013
1.5469
-5.20028e-013
1.57029
-1.95066e-013
1.57868
-5.19695e-013
1.57276
-3.37286e-013
1.55851
-7.76046e-014
1.54464
-1.57985e-013
1.54605
-2.22933e-013
1.559
-2.88769e-013
1.56738
-4.48419e-013
1.5719
1.21303e-012
1.57437
-2.3697e-011
1.57455
-3.79278e-011
1.56339
-5.08235e-011
1.50319
-1.09564e-010
1.35216
-1.68602e-010
1.2211
-2.58807e-010
1.12628
-4.00216e-010
1.064
-8.58877e-010
1.02387
-2.88068e-009
0.999872
-8.81868e-009
0.986269
-1.54627e-008
0.98222
-7.54712e-007
0.982899
3.04539e-008
0.968118
5.44615e-005
0.964402
-0.0012862
0.96633
-0.00350533
0.972261
-0.00486841
0.970398
-0.00568574
0.969638
-0.00835127
0.971286
-0.0106594
0.968043
-0.015652
0.977407
-0.0249605
0.974925
-0.0366222
-0.051581
4.10909e-009
1.77991e-012
2.76271e-008
-7.28306e-014
1.76461e-007
1.0199e-011
1.01858e-006
5.41434e-012
5.55367e-006
-3.87956e-012
2.74668e-005
7.14984e-013
0.000126292
-1.25233e-012
0.000526619
1.81544e-012
0.00200324
-9.30811e-013
0.00687452
1.13687e-013
0.0202805
-1.58451e-012
0.0519294
3.05178e-012
0.115023
2.86349e-012
0.223351
1.28608e-012
0.375356
1.26388e-012
0.553517
-7.49623e-013
0.732494
1.1946e-012
0.894724
1.10756e-012
1.03433
-4.75175e-014
1.14994
3.39728e-013
1.2467
-6.1573e-013
1.32021
9.25926e-014
1.37841
6.10179e-013
1.43269
-4.47864e-013
1.464
-6.51257e-013
1.47776
-5.47562e-013
1.49692
-6.03295e-013
1.51955
-2.2049e-013
1.52767
-4.64961e-013
1.52194
-1.97065e-013
1.50816
4.05231e-014
1.49473
-1.73195e-013
1.4961
-2.226e-013
1.50863
-2.40474e-013
1.51673
-5.0504e-013
1.5211
1.0959e-012
1.5235
-2.33148e-011
1.52367
-4.142e-011
1.51287
-5.68103e-011
1.45462
-1.24929e-010
1.30847
-1.943e-010
1.18164
-2.98108e-010
1.08989
-4.59021e-010
1.02962
-9.66286e-010
0.990783
-3.1274e-009
0.967564
-9.64095e-009
0.954401
-2.48792e-008
0.950482
-7.17128e-007
0.951148
-3.38947e-007
0.936834
4.96177e-005
0.933413
-0.00117504
0.935066
-0.00367495
0.941047
-0.00463773
0.938886
-0.00509234
0.937878
-0.00706126
0.940666
-0.00906472
0.937732
-0.0125716
0.945452
-0.0207504
0.944068
-0.0340682
-0.0499384
3.97632e-009
2.51621e-012
2.67345e-008
2.20268e-013
1.7076e-007
1.06404e-011
9.85669e-007
5.21805e-012
5.37422e-006
-3.43725e-012
2.65793e-005
1.21148e-012
0.000122211
-1.46017e-012
0.000509603
1.52944e-012
0.00193852
-6.55476e-013
0.00665239
-3.4639e-014
0.0196252
-1.32072e-012
0.0502515
3.34932e-012
0.111306
3.0651e-012
0.216134
6.72795e-013
0.363228
1.19016e-012
0.535632
-3.5838e-013
0.708825
1.94156e-012
0.865814
6.58584e-013
1.00091
-3.61489e-013
1.11278
5.00044e-013
1.20641
-2.92211e-013
1.27755
2.64011e-013
1.33387
7.43849e-013
1.38639
-5.09592e-013
1.41669
-6.30385e-013
1.43001
-5.42011e-013
1.44855
-8.82627e-013
1.47045
-2.89546e-013
1.47831
-4.78062e-013
1.47277
-2.20712e-013
1.45942
1.10023e-013
1.44643
-1.71863e-013
1.44775
-1.69087e-013
1.45988
-2.83218e-013
1.46772
-4.45755e-013
1.47195
1.10456e-012
1.47427
-2.28084e-011
1.47444
-4.56939e-011
1.46399
-6.38793e-011
1.40762
-1.42664e-010
1.26619
-2.2337e-010
1.14346
-3.41843e-010
1.05467
-5.23426e-010
0.996355
-1.08031e-009
0.958769
-3.39458e-009
0.9363
-1.05705e-008
0.923562
-3.62393e-008
0.91977
-6.3934e-007
0.920421
-3.74292e-007
0.906557
4.31303e-005
0.90339
-0.00101798
0.904662
-0.00339213
0.9108
-0.00424425
0.90847
-0.00427641
0.907535
-0.00560575
0.910855
-0.00722473
0.907842
-0.0103192
0.914941
-0.017611
0.914637
-0.0312709
-0.0486299
3.84784e-009
3.06688e-012
2.58706e-008
3.43725e-013
1.65242e-007
1.15641e-011
9.53819e-007
5.15499e-012
5.20057e-006
-3.05445e-012
2.57205e-005
1.71507e-012
0.000118262
-2.01528e-012
0.000493137
1.39444e-012
0.00187588
-5.56888e-013
0.00643744
-3.25073e-013
0.0189911
-1.06937e-012
0.0486277
2.97806e-012
0.107709
2.9905e-012
0.20915
6.85674e-013
0.351491
1.36646e-012
0.518324
-1.0747e-013
0.685922
1.71374e-012
0.837838
8.96172e-013
0.968567
-8.06466e-013
1.07682
3.33955e-013
1.16743
-1.88072e-013
1.23627
1.73417e-013
1.29077
7.91589e-013
1.3416
-2.77556e-013
1.37092
-4.82281e-013
1.3838
-5.9952e-013
1.40175
-5.51781e-013
1.42294
-4.57634e-013
1.43054
-5.66547e-013
1.42518
-1.98619e-013
1.41227
4.21885e-015
1.39969
-1.80966e-014
1.40097
-2.47025e-013
1.41271
-2.42473e-013
1.4203
-3.89133e-013
1.42439
1.06248e-012
1.42663
-2.20114e-011
1.4268
-5.05472e-011
1.41668
-7.189e-011
1.36213
-1.62451e-010
1.22528
-2.55451e-010
1.10651
-3.89541e-010
1.02059
-5.92876e-010
0.96416
-1.20215e-009
0.927789
-3.70211e-009
0.906046
-1.16256e-008
0.89372
-4.7799e-008
0.89005
-5.4163e-007
0.890685
-4.77469e-007
0.877257
3.24633e-005
0.874362
-0.000766783
0.875376
-0.00273883
0.881369
-0.00347995
0.878793
-0.00316011
0.878029
-0.0043531
0.882096
-0.00630381
0.880546
-0.00880149
0.88515
-0.0152387
0.885918
-0.0291348
-0.0473817
3.72351e-009
3.58202e-012
2.50347e-008
7.38964e-013
1.59903e-007
1.25926e-011
9.23e-007
4.58833e-012
5.03252e-006
-2.14495e-012
2.48894e-005
2.20357e-012
0.000114441
-2.30482e-012
0.000477202
1.112e-012
0.00181526
-2.04281e-014
0.00622943
-5.90639e-013
0.0183774
-5.62217e-013
0.0470565
3.4559e-012
0.104229
3.14326e-012
0.202392
5.68434e-013
0.340134
1.69642e-012
0.501576
-4.7562e-013
0.663758
2.05347e-012
0.810765
6.51479e-013
0.93727
-9.43245e-013
1.04203
2.08722e-014
1.12971
-3.84581e-013
1.19632
1.05027e-013
1.24907
8.49765e-013
1.29825
-1.93845e-013
1.32662
-5.07372e-013
1.33909
-5.21361e-013
1.35645
-5.9841e-013
1.37696
-4.23439e-013
1.38431
-5.24913e-013
1.37913
-2.14384e-013
1.36663
9.65894e-015
1.35446
4.996e-015
1.35571
-1.48881e-013
1.36706
-2.71116e-013
1.3744
-3.44613e-013
1.37837
9.67337e-013
1.38053
-2.11434e-011
1.3807
-5.60663e-011
1.37091
-8.09104e-011
1.31812
-1.84415e-010
1.18569
-2.90439e-010
1.07076
-4.40185e-010
0.987615
-6.65802e-010
0.933006
-1.33005e-009
0.89781
-4.04277e-009
0.87677
-1.27798e-008
0.864842
-5.83858e-008
0.86129
-4.36511e-007
0.861908
-7.84034e-007
0.848904
1.7401e-005
0.84628
-0.000421487
0.847133
-0.00188399
0.852838
-0.0024559
0.850161
-0.0020405
0.849109
-0.00321428
0.85373
-0.00521015
0.85217
-0.00778811
0.854515
-0.0145538
0.858443
-0.0267412
-0.0456385
3.60319e-009
3.7339e-012
2.42258e-008
1.44151e-012
1.54736e-007
1.27685e-011
8.93175e-007
4.53504e-012
4.86991e-006
-1.34381e-012
2.40852e-005
2.04992e-012
0.000110743
-2.50289e-012
0.000461783
3.94351e-013
0.00175661
5.68434e-013
0.00602815
-4.64517e-013
0.0177836
-4.35207e-013
0.045536
3.76232e-012
0.100861
3.03402e-012
0.195852
5.96856e-013
0.329143
1.79323e-012
0.485369
-4.32543e-013
0.642311
2.645e-012
0.784568
3.79252e-013
0.906985
-8.38885e-013
1.00836
-1.38112e-013
1.09321
-6.57252e-013
1.15767
6.06182e-014
1.20871
8.44214e-013
1.2563
-2.30704e-013
1.28376
-5.81535e-013
1.29582
-4.39426e-013
1.31262
-5.55334e-013
1.33247
-5.55778e-013
1.33958
-5.99742e-013
1.33456
-1.30229e-013
1.32248
3.21965e-014
1.3107
-7.68274e-014
1.3119
-1.58651e-013
1.32289
-1.56986e-013
1.32999
-3.65152e-013
1.33383
8.18345e-013
1.33593
-2.02677e-011
1.33608
-6.20861e-011
1.32661
-9.07612e-011
1.27553
-2.0786e-010
1.14738
-3.27305e-010
1.03616
-4.93148e-010
0.955703
-7.41759e-010
0.902859
-1.46236e-009
0.8688
-4.41069e-009
0.848439
-1.39887e-008
0.836897
-6.76345e-008
0.83346
-3.23694e-007
0.834059
-1.15e-006
0.821468
6.05167e-007
0.819088
-7.24513e-005
0.819822
-0.00100077
0.825224
-0.00133673
0.822683
-0.00110869
0.821596
-0.00200854
0.826339
-0.00365029
0.823884
-0.00665759
0.823479
-0.0140538
0.831132
-0.0243709
-0.0431262
3.48677e-009
4.39293e-012
2.3443e-008
1.8332e-012
1.49736e-007
1.26938e-011
8.64315e-007
4.53593e-012
4.71256e-006
-1.16263e-012
2.33069e-005
2.22489e-012
0.000107165
-2.57661e-012
0.000446862
5.63105e-013
0.00169985
1.46549e-012
0.00583336
-6.70575e-013
0.017209
-2.73559e-013
0.0440646
4.02167e-012
0.0976022
2.60059e-012
0.189524
6.03073e-013
0.318508
1.79146e-012
0.469686
-4.44089e-014
0.621556
1.99885e-012
0.759217
7.08322e-013
0.877678
-7.01217e-013
0.975776
-3.16192e-013
1.05788
-5.47118e-013
1.12026
-8.01581e-014
1.16965
8.15792e-013
1.2157
-3.51053e-013
1.24227
-5.57554e-013
1.25395
-4.28102e-013
1.27021
-4.48974e-013
1.28941
-4.86722e-013
1.2963
-5.27356e-013
1.29144
-1.94289e-014
1.27974
4.32987e-015
1.26835
-6.59472e-014
1.26951
-1.12244e-013
1.28014
-1.14908e-013
1.28702
-2.99982e-013
1.29073
7.46403e-013
1.29276
-1.92976e-011
1.29291
-6.84726e-011
1.28375
-1.01152e-010
1.23431
-2.32548e-010
1.1103
-3.6545e-010
1.00268
-5.47549e-010
0.924822
-8.20049e-010
0.873686
-1.59664e-009
0.840727
-4.79314e-009
0.821025
-1.52072e-008
0.809855
-7.5402e-008
0.806529
-2.12543e-007
0.807108
-1.30127e-006
0.79492
-1.4939e-005
0.792738
0.000197496
0.793374
-0.000169823
0.798576
-0.000272163
0.796179
-0.000156447
0.795373
-0.00084665
0.800136
-0.00239403
0.797264
-0.00569047
0.795422
-0.0131543
0.803873
-0.022631
-0.0410494
3.3741e-009
4.37517e-012
2.26855e-008
2.13873e-012
1.44898e-007
1.21112e-011
8.36387e-007
4.94804e-012
4.56028e-006
-8.83738e-013
2.25538e-005
1.75593e-012
0.000103702
-2.21956e-012
0.000432423
5.20473e-013
0.00164492
2.13163e-012
0.00564488
-2.2915e-013
0.0166529
1.00364e-013
0.0426408
3.63709e-012
0.0944485
2.68674e-012
0.1834
4.55636e-013
0.308216
2.08722e-012
0.454509
2.77556e-013
0.601472
1.7506e-012
0.734685
8.87734e-013
0.849319
-7.17204e-013
0.944247
-5.83089e-013
1.0237
-6.49703e-013
1.08406
-1.43441e-013
1.13186
6.78346e-013
1.17642
-2.48468e-013
1.20213
-4.33431e-013
1.21343
-4.15223e-013
1.22917
-3.71481e-013
1.24775
-5.43121e-013
1.25441
-4.74065e-013
1.24971
2.4869e-014
1.23839
-9.22595e-014
1.22736
-9.53682e-014
1.22849
-1.55431e-013
1.23878
-1.2057e-013
1.24543
-2.84661e-013
1.24902
6.32938e-013
1.25099
-1.82301e-011
1.25113
-7.53035e-011
1.24226
-1.12082e-010
1.19443
-2.57706e-010
1.07443
-4.04413e-010
0.970282
-6.02849e-010
0.894939
-8.99775e-010
0.845455
-1.73111e-009
0.813561
-5.18047e-009
0.794495
-1.6404e-008
0.783687
-8.17494e-008
0.780469
-1.10955e-007
0.781026
-1.21104e-006
0.769231
-2.7467e-005
0.767216
0.000359868
0.767786
0.000549673
0.772843
0.000681459
0.770584
0.000804164
0.770045
0.000233975
0.774755
-0.00141886
0.771827
-0.00484379
0.769184
-0.0122994
0.777207