/*--------------------------------*- C++ -*----------------------------------*\
| =========                 |                                                 |
| \\      /  F ield         | OpenFOAM: The Open Source CFD Toolbox           |
|  \\    /   O peration     | Version:  5.x                                   |
|   \\  /    A nd           | Web:      www.OpenFOAM.org                      |
|    \\/     M anipulation  |                                                 |
\*---------------------------------------------------------------------------*/
/*   Windows 32 and 64 bit porting by blueCAPE: http://www.bluecape.com.pt   *\
|  Based on Windows porting (2.0.x v4) by Symscape: http://www.symscape.com   |
\*---------------------------------------------------------------------------*/
FoamFile
{
    version     2.0;
    format      ascii;
    class       surfaceScalarField;
    location    "0.005";
    object      phi_0;
}
// * * * * * * * * * * * * * * * * * * * * * * * * * * * * * * * * * * * * * //

dimensions      [1 0 -1 0 0 0 0];

internalField   nonuniform List<scalar> 
19740
(
6.6917e-009
1.44329e-013
4.50009e-008
-3.66374e-013
2.87505e-007
-3.98348e-013
1.65994e-006
4.70735e-014
9.05289e-006
-1.41354e-012
4.47839e-005
-2.91767e-013
0.00020597
-1.78968e-013
0.000859086
1.01652e-012
0.00326892
-7.68718e-013
0.0112218
-3.10862e-015
0.0331174
2.79776e-013
0.0848297
1.30917e-012
0.187958
1.01696e-012
0.365103
7.5806e-013
0.613782
-5.04485e-013
0.905362
-7.06768e-013
1.19836
-1.29896e-013
1.46398
1.19371e-012
1.69256
-3.06422e-014
1.88186
1.08136e-013
2.0403
2.94209e-013
2.16066
2.29372e-013
2.25598
2.61902e-013
2.34484
-2.40807e-013
2.39609
-1.00697e-013
2.41863
-1.46438e-013
2.45004
6.13953e-014
2.48708
8.4821e-014
2.50033
-6.25056e-014
2.49094
-1.36557e-014
2.46835
7.7327e-014
2.4464
-8.99836e-014
2.44873
-2.20712e-013
2.46924
3.39173e-014
2.48248
-5.51226e-014
2.48962
1.3195e-013
2.49352
-2.13429e-012
2.49379
-2.70683e-012
2.476
-3.15137e-012
2.38019
-4.76341e-012
2.1408
-6.67938e-012
1.93333
-9.55686e-012
1.78341
-1.34373e-011
1.68477
-2.39512e-011
1.62151
-5.48837e-011
1.58332
-1.88339e-010
1.56217
-2.60182e-009
1.55602
-6.9467e-009
1.55522
-2.15867e-008
1.53303
-2.19567e-007
1.53394
1.99265e-006
1.53738
-0.000202181
1.54234
-0.000716396
1.53835
-0.00129177
1.53688
-0.00201315
1.54687
-0.00304845
1.54353
-0.00366377
1.53154
-0.00490431
1.54704
-0.00724984
-0.0119733
6.47547e-009
-1.12665e-012
4.35468e-008
-5.81757e-013
2.78215e-007
-2.17604e-014
1.6063e-006
1.28164e-012
8.76038e-006
-2.79687e-012
4.33368e-005
-4.24993e-013
0.000199315
-5.10259e-013
0.000831328
1.00275e-012
0.0031633
-1.65556e-012
0.0108592
8.37552e-013
0.0320473
5.24025e-013
0.0820887
1.92779e-012
0.181884
1.16129e-012
0.353306
1.19904e-012
0.593949
-1.92735e-013
0.876108
-6.75016e-013
1.15963
-6.71463e-013
1.41667
1.32316e-012
1.63787
6.67688e-013
1.82106
6.0485e-013
1.97437
-1.05027e-013
2.09085
8.88178e-015
2.18309
2.93099e-013
2.26907
9.40359e-014
2.31866
-1.60538e-013
2.34048
-1.57874e-013
2.37088
5.80647e-014
2.40672
-1.03029e-013
2.41954
-1.3789e-013
2.41045
-1.49436e-013
2.3886
1.61315e-013
2.36735
6.18394e-014
2.3696
-1.47937e-013
2.38945
-4.29101e-014
2.40227
-9.09828e-014
2.40918
1.91513e-013
2.41295
-4.30794e-012
2.41321
-5.3092e-012
2.396
-6.17717e-012
2.30328
-9.42146e-012
2.07163
-1.33726e-011
1.87086
-1.93361e-011
1.72578
-2.70151e-011
1.63033
-4.78484e-011
1.56911
-1.10833e-010
1.53216
-3.82309e-010
1.5117
-5.26315e-009
1.50574
-1.47202e-008
1.50496
-4.62849e-008
1.4835
-4.34695e-007
1.48439
3.92596e-006
1.48734
-0.000463184
1.4922
-0.00149554
1.48801
-0.00293083
1.48603
-0.00425724
1.49694
-0.00589469
1.49346
-0.00737727
1.48173
-0.00995654
1.49975
-0.0153926
-0.0240221
6.26624e-009
-2.85638e-012
4.21397e-008
-2.75779e-013
2.69225e-007
-1.44773e-013
1.5544e-006
9.79661e-013
8.47731e-006
-3.89999e-012
4.19365e-005
-6.37268e-013
0.000192874
-2.47802e-013
0.000804466
1.07558e-012
0.00306108
-2.08855e-012
0.0105083
2.04636e-012
0.0310118
7.78044e-013
0.0794362
2.19158e-012
0.176007
1.15907e-012
0.34189
1.40243e-012
0.574757
3.11751e-013
0.847799
-2.22933e-013
1.12216
-4.95604e-013
1.3709
2.15072e-012
1.58495
8.44436e-013
1.76221
4.98046e-013
1.91057
-2.0739e-013
2.02329
4.44089e-015
2.11255
3.71148e-013
2.19576
-8.52651e-014
2.24374
-1.78302e-013
2.26485
-1.7053e-013
2.29427
-3.81917e-014
2.32895
1.97287e-013
2.34136
-1.36224e-013
2.33256
-2.0306e-013
2.31142
2.65787e-013
2.29085
1.03473e-013
2.29304
-1.44107e-013
2.31225
-1.5532e-013
2.32465
-1.7103e-013
2.33133
2.15994e-013
2.33498
-6.41898e-012
2.33524
-7.95808e-012
2.31858
-9.3569e-012
2.22886
-1.43051e-011
2.00469
-2.04776e-011
1.81041
-2.92585e-011
1.67002
-4.09759e-011
1.57765
-7.30022e-011
1.51841
-1.72554e-010
1.48265
-5.96697e-010
1.46285
-8.0384e-009
1.45708
-2.36986e-008
1.45634
-8.27686e-008
1.43556
-7.2775e-007
1.43645
6.2744e-006
1.43857
-0.00084715
1.44296
-0.00249242
1.43852
-0.00507141
1.43602
-0.0063753
1.44864
-0.00854087
1.44541
-0.0116366
1.43521
-0.016863
1.45111
-0.0273593
-0.0307899
6.06376e-009
-4.03322e-012
4.07781e-008
-1.35358e-012
2.60526e-007
7.14984e-014
1.50417e-006
4.84945e-013
8.20339e-006
-4.03588e-012
4.05815e-005
-2.07923e-012
0.000186642
-2.98872e-013
0.000778472
1.22657e-012
0.00296217
-1.77058e-012
0.0101687
2.82485e-012
0.0300098
3.57936e-013
0.0768695
3.05844e-012
0.17032
1.57518e-012
0.330843
1.5441e-012
0.556186
1.43929e-012
0.820405
-3.8769e-013
1.0859
-3.46834e-013
1.3266
1.38667e-012
1.53374
1.34381e-012
1.70527
6.03073e-013
1.84884
-5.5711e-013
1.95791
-2.3026e-013
2.04428
1.7919e-013
2.12481
-7.68274e-014
2.17124
-2.91989e-013
2.19167
-1.57541e-013
2.22013
-1.54321e-013
2.2537
1.92624e-013
2.26571
-2.5957e-013
2.25719
-1.44773e-013
2.23673
6.09512e-014
2.21683
1.07137e-013
2.21895
-1.38778e-013
2.23753
-1.03029e-013
2.24953
-1.73639e-013
2.256
2.55185e-013
2.25953
-8.56748e-012
2.25978
-1.0705e-011
2.24366
-1.25036e-011
2.15684
-1.95471e-011
1.93991
-2.76049e-011
1.75191
-3.9766e-011
1.61606
-5.64754e-011
1.52667
-1.01182e-010
1.46935
-2.44101e-010
1.43474
-8.44208e-010
1.41558
-1.09684e-008
1.41
-3.2038e-008
1.40928
-1.09534e-007
1.38917
-7.15733e-007
1.39008
-2.48529e-005
1.39102
-0.0013011
1.3948
-0.00383164
1.39131
-0.00718837
1.38726
-0.00832871
1.40186
-0.0106141
1.39953
-0.0168397
1.39184
-0.0241283
1.39711
-0.0349655
-0.0386879
5.86783e-009
-4.09317e-012
3.94605e-008
-1.95088e-012
2.52108e-007
1.0405e-012
1.45557e-006
2.25597e-013
7.93832e-006
-4.09717e-012
3.92702e-005
-3.23919e-012
0.000180611
-2.12719e-013
0.000753318
1.34692e-012
0.00286646
-1.52722e-012
0.00984016
2.92522e-012
0.0290401
6.03961e-014
0.0743856
3.31601e-012
0.164817
1.82343e-012
0.320152
2.08589e-012
0.538214
1.8443e-012
0.793896
-8.31779e-013
1.05082
2.01172e-013
1.28373
1.64602e-012
1.48418
2.911e-013
1.65017
1.03029e-012
1.7891
-4.54969e-013
1.89465
-5.12035e-013
1.97823
4.50751e-014
2.05615
1.3689e-013
2.10108
-7.60503e-014
2.12085
-1.78635e-013
2.1484
1.50435e-013
2.18088
1.46883e-013
2.1925
-3.04423e-013
2.18426
-2.76446e-013
2.16446
-8.40439e-014
2.1452
1.66533e-014
2.14725
-2.65121e-013
2.16523
-9.46465e-014
2.17684
-1.72029e-013
2.18311
3.75422e-013
2.18652
-1.09514e-011
2.18676
-1.32599e-011
2.17116
-1.55246e-011
2.08714
-2.48481e-011
1.87723
-3.50245e-011
1.69531
-5.11898e-011
1.56384
-7.38589e-011
1.47734
-1.32985e-010
1.42187
-3.2723e-010
1.38838
-1.1336e-009
1.36984
-1.41618e-008
1.36444
-3.94477e-008
1.36374
3.56014e-008
1.34428
1.57481e-006
1.34522
-0.000180575
1.34493
-0.00146372
1.34854
-0.00498618
1.34644
-0.0084859
1.34215
-0.0103906
1.35253
-0.012487
1.35536
-0.0209148
1.35096
-0.0297742
1.35007
-0.0396993
-0.0443647
5.67823e-009
-2.86171e-012
3.81854e-008
-2.02283e-012
2.43962e-007
1.11466e-012
1.40854e-006
1.84297e-013
7.68182e-006
-4.55991e-012
3.80013e-005
-4.25615e-012
0.000174775
-7.19425e-013
0.000728976
1.60183e-012
0.00277384
-1.59783e-012
0.0095222
3.15881e-012
0.0281017
8.79297e-014
0.0719821
4.64473e-012
0.159491
1.63825e-012
0.309808
1.74838e-012
0.520823
1.96998e-012
0.768243
-2.06501e-013
1.01686
-2.31815e-013
1.24225
1.3598e-012
1.43622
4.61409e-013
1.59685
9.17932e-013
1.73129
-2.8666e-013
1.83343
-1.81632e-013
1.91431
9.41469e-014
1.98971
1.74527e-013
2.03319
3.33067e-015
2.05232
-1.82077e-014
2.07898
2.10165e-013
2.11041
5.16254e-014
2.12165
-3.97238e-013
2.11368
-2.42473e-013
2.09452
-1.64424e-013
2.07588
-3.76366e-014
2.07786
-2.09055e-013
2.09527
-2.3026e-013
2.10651
-1.34837e-013
2.11256
4.84945e-013
2.11587
-1.33749e-011
2.1161
-1.56754e-011
2.10101
-1.85522e-011
2.0197
-3.06015e-011
1.81657
-4.34351e-011
1.64053
-6.40277e-011
1.51331
-9.28923e-011
1.42961
-1.67935e-010
1.37593
-4.2947e-010
1.34352
-1.48214e-009
1.32558
-1.72589e-008
1.32035
-6.35639e-008
1.31968
3.77245e-007
1.30087
7.77153e-006
1.30082
-0.000492916
1.30155
-0.00162971
1.3047
-0.00560491
1.30339
-0.00957612
1.30249
-0.0118673
1.3024
-0.017135
1.31451
-0.0231633
1.31437
-0.0342
1.31742
-0.0378776
-0.0460687
5.49476e-009
-9.33476e-013
3.69516e-008
-1.57474e-012
2.36079e-007
1.26343e-012
1.36302e-006
6.49703e-013
7.4336e-006
-4.80815e-012
3.67734e-005
-4.85079e-012
0.000169128
-1.07736e-012
0.000705422
1.65956e-012
0.00268421
-2.07701e-012
0.00921452
2.87503e-012
0.0271937
-3.09086e-013
0.0696562
4.49019e-012
0.154338
1.75149e-012
0.299797
1.95177e-012
0.503995
1.85496e-012
0.74342
-1.59872e-013
0.984005
-1.73195e-014
1.20211
1.37179e-012
1.38981
2.48024e-013
1.54525
5.47562e-013
1.67535
-2.81997e-014
1.77419
-5.50671e-014
1.85245
5.02487e-013
1.92542
8.59313e-014
1.9675
-8.60423e-014
1.98601
1.67866e-013
2.0118
-2.49245e-013
2.04222
5.20695e-014
2.0531
-4.43201e-013
2.04538
-2.92211e-013
2.02684
-3.77476e-015
2.00881
-5.32907e-015
2.01072
-2.40807e-013
2.02757
-1.04361e-013
2.03844
-2.81497e-013
2.0443
4.99989e-013
2.0475
-1.54273e-011
2.04773
-1.8182e-011
2.03312
-2.17187e-011
1.95444
-3.70433e-011
1.75787
-5.28976e-011
1.58752
-7.74881e-011
1.46441
-1.12432e-010
1.38341
-2.07104e-010
1.33147
-5.7444e-010
1.30011
-1.92891e-009
1.28275
-1.81757e-008
1.27769
-1.52265e-007
1.27704
9.33991e-007
1.25888
2.04488e-005
1.25706
-0.000910618
1.25989
-0.00221084
1.26188
-0.00640784
1.26161
-0.0105954
1.26301
-0.0136889
1.26476
-0.0200515
1.26283
-0.0241134
1.27326
-0.0295065
1.27554
-0.0379871
-0.0473545
5.31721e-009
1.2772e-012
3.57576e-008
-8.86402e-013
2.2845e-007
1.67688e-012
1.31898e-006
7.5584e-013
7.19341e-006
-4.89475e-012
3.55852e-005
-4.56923e-012
0.000163663
-8.14904e-013
0.000682628
2.0548e-012
0.00259748
-1.78524e-012
0.00891678
2.39364e-012
0.026315
-4.8006e-013
0.0674055
4.16467e-012
0.149351
2.58726e-012
0.29011
1.74261e-012
0.487709
1.58895e-012
0.719398
-1.1724e-013
0.95221
2.78888e-013
1.16327
8.83738e-013
1.34491
-1.17462e-013
1.49532
3.5083e-013
1.62121
-3.28626e-013
1.71686
-1.46327e-013
1.7926
5.69989e-013
1.8632
1.83631e-013
1.90392
-7.03881e-014
1.92184
8.9484e-014
1.9468
-1.92735e-013
1.97623
-3.9635e-014
1.98676
-4.35318e-013
1.97929
-3.04312e-013
1.96135
1.15019e-013
1.9439
-2.69784e-014
1.94575
-2.23044e-013
1.96205
-1.5743e-013
1.97257
-2.77778e-013
1.97825
6.12177e-013
1.98134
-1.72948e-011
1.98156
-2.06225e-011
1.96743
-2.47925e-011
1.89129
-4.3912e-011
1.70107
-6.2544e-011
1.53622
-9.13888e-011
1.41709
-1.33781e-010
1.33871
-2.55947e-010
1.28845
-7.80435e-010
1.2581
-2.48987e-009
1.2413
-1.41652e-008
1.23641
-3.65567e-007
1.2358
1.53115e-006
1.21826
4.18469e-005
1.21502
-0.00167495
1.21886
-0.00329146
1.22091
-0.00708766
1.22095
-0.0102995
1.22005
-0.0131279
1.22377
-0.0183799
1.22131
-0.0228734
1.23212
-0.0276995
1.23184
-0.0406805
-0.0510364
5.1454e-009
2.10143e-012
3.46022e-008
-5.84421e-013
2.21069e-007
3.23386e-012
1.27636e-006
1.42997e-012
6.96097e-006
-5.1843e-012
3.44353e-005
-3.94751e-012
0.000158375
-6.30607e-013
0.000660571
3.20233e-012
0.00251355
-1.40243e-012
0.00862866
2.38787e-012
0.0254647
-1.1835e-012
0.0652274
4.22862e-012
0.144525
2.57572e-012
0.280736
1.46949e-012
0.471951
1.6569e-012
0.696153
2.43361e-013
0.921442
1.02585e-013
1.12568
1.68532e-012
1.30145
-9.68114e-014
1.44701
5.71099e-013
1.56883
-7.36522e-013
1.66138
-9.99201e-014
1.73467
5.71543e-013
1.803
-1.65201e-013
1.8424
-2.01617e-013
1.85974
-1.50324e-013
1.88389
-2.19713e-013
1.91237
-2.99316e-013
1.92256
-3.72924e-013
1.91534
-2.85327e-013
1.89797
5.17364e-014
1.88109
6.86118e-014
1.88288
-1.99396e-013
1.89865
-2.92211e-013
1.90884
-2.92766e-013
1.91433
7.83262e-013
1.91732
-1.90534e-011
1.91753
-2.30526e-011
1.90385
-2.79047e-011
1.83018
-5.06861e-011
1.64611
-7.20492e-011
1.48658
-1.06243e-010
1.3713
-1.58674e-010
1.29546
-3.16609e-010
1.24681
-1.03996e-009
1.21745
-3.19347e-009
1.20119
-6.49658e-009
1.19645
-6.4638e-007
1.19589
1.20117e-006
1.17894
5.55366e-005
1.17473
-0.00212309
1.1784
-0.00391766
1.18188
-0.0064235
1.18099
-0.00978877
1.17844
-0.0120199
1.18372
-0.016214
1.18557
-0.0221417
1.19253
-0.0273811
1.1908
-0.0412309
-0.0574555
4.97914e-009
3.18412e-012
3.34841e-008
-9.92095e-013
2.13926e-007
4.49418e-012
1.23512e-006
1.61915e-012
6.73605e-006
-5.12035e-012
3.33227e-005
-2.97229e-012
0.000153257
-4.94271e-013
0.000639226
3.81073e-012
0.00243233
-4.18332e-013
0.00834985
1.80789e-012
0.0246419
-7.41185e-013
0.0631198
4.73666e-012
0.139855
1.81011e-012
0.271665
7.32303e-013
0.456701
1.90381e-012
0.673659
1.06581e-014
0.891668
-1.83853e-013
1.08931
1.53433e-012
1.2594
3.18634e-013
1.40025
2.96874e-013
1.51814
-5.13589e-013
1.6077
-2.92655e-013
1.67862
6.06404e-013
1.74474
-3.0953e-013
1.78287
-3.92797e-013
1.79965
-1.67533e-013
1.82302
-2.70894e-013
1.85058
-4.68958e-013
1.86044
-3.11973e-013
1.85345
-3.93796e-013
1.83664
1.60982e-014
1.82031
9.27036e-014
1.82204
-2.27041e-013
1.8373
-2.59792e-013
1.84716
-2.56462e-013
1.85247
9.3936e-013
1.85537
-2.0615e-011
1.85557
-2.52653e-011
1.84234
-3.09243e-011
1.77104
-5.74267e-011
1.59292
-8.26106e-011
1.43855
-1.23495e-010
1.32699
-1.87274e-010
1.2536
-3.84673e-010
1.20653
-1.33575e-009
1.17811
-4.07376e-009
1.16238
-1.11143e-009
1.15779
-8.11684e-007
1.15727
4.81271e-007
1.14087
5.64979e-005
1.1361
-0.00200305
1.13938
-0.00367357
1.14365
-0.00613126
1.1437
-0.00851923
1.13911
-0.0109799
1.14404
-0.014673
1.15013
-0.022534
1.15426
-0.0304951
1.15483
-0.0432844
-0.0563421
4.81825e-009
3.82006e-012
3.24022e-008
-1.19549e-012
2.07013e-007
5.56799e-012
1.19521e-006
3.11928e-012
6.51839e-006
-4.68692e-012
3.22459e-005
-2.09432e-012
0.000148305
-3.55271e-013
0.000618572
3.74412e-012
0.00235374
-5.55112e-014
0.00808005
9.90319e-013
0.0238457
-5.55556e-013
0.0610803
3.84182e-012
0.135336
1.84031e-012
0.262887
9.2415e-013
0.441944
1.37357e-012
0.651891
-1.03917e-013
0.862857
5.91527e-013
1.05411
1.53211e-012
1.2187
-5.58886e-013
1.355
1.24123e-013
1.46908
-9.35696e-013
1.55575
-2.70894e-013
1.62438
7.56728e-013
1.68837
-2.62901e-013
1.72526
-4.39204e-013
1.7415
-3.60267e-013
1.76411
-2.59237e-013
1.79078
-5.14033e-013
1.80033
-4.13114e-013
1.79356
-4.48197e-013
1.7773
3.07532e-014
1.76149
3.21965e-015
1.76317
-2.65232e-013
1.77794
-3.16414e-013
1.78747
-3.13749e-013
1.79261
1.02218e-012
1.79542
-2.19276e-011
1.79561
-2.74555e-011
1.78281
-3.40323e-011
1.71382
-6.50403e-011
1.54145
-9.46745e-011
1.39207
-1.42304e-010
1.28412
-2.18155e-010
1.21309
-4.59999e-010
1.16754
-1.66682e-009
1.14004
-5.11257e-009
1.12482
-4.52083e-012
1.12038
-8.11302e-007
1.1199
2.80342e-007
1.10401
5.39363e-005
1.09922
-0.00165915
1.10205
-0.00311198
1.1066
-0.0057211
1.10639
-0.00743582
1.10312
-0.0110651
1.10584
-0.0150844
1.11607
-0.0234191
1.11694
-0.0326189
1.11213
-0.0422605
-0.0540904
4.66256e-009
3.70903e-012
3.13552e-008
-9.72555e-013
2.00324e-007
7.38698e-012
1.15659e-006
3.05622e-012
6.30777e-006
-4.22418e-012
3.1204e-005
-1.02229e-012
0.000143513
-7.14984e-013
0.000598584
3.24096e-012
0.00227768
-3.43281e-013
0.00781897
2.78444e-013
0.0230752
-7.50955e-013
0.0591066
3.07843e-012
0.130963
1.81721e-012
0.254392
1.04317e-012
0.427664
1.05915e-012
0.630827
4.32543e-013
0.834976
8.62421e-013
1.02005
1.45972e-012
1.17933
-3.29514e-013
1.31122
2.13163e-014
1.42161
-9.94538e-013
1.50548
-1.15907e-013
1.5719
8.47322e-013
1.63381
-4.15445e-013
1.66952
-5.68434e-013
1.68522
-4.08118e-013
1.70711
-6.49591e-013
1.73292
-1.96065e-013
1.74215
-5.80536e-013
1.73561
-4.12781e-013
1.71987
5.26246e-014
1.70457
-1.36668e-013
1.7062
-3.34843e-013
1.72049
-2.25153e-013
1.72971
-3.46168e-013
1.73469
1.18616e-012
1.7374
-2.28844e-011
1.73759
-2.95817e-011
1.7252
-3.73805e-011
1.65844
-7.34947e-011
1.49164
-1.08392e-010
1.34709
-1.63828e-010
1.24262
-2.52657e-010
1.17389
-5.42584e-010
1.12982
-2.00216e-009
1.10321
-6.20153e-009
1.08847
-1.93854e-009
1.08418
-7.47839e-007
1.08373
5.82951e-007
1.06835
5.46482e-005
1.06385
-0.00144537
1.06632
-0.00276988
1.07079
-0.0050326
1.06949
-0.00695839
1.07006
-0.0124171
1.06889
-0.0169674
1.07973
-0.0210638
1.0796
-0.0307752
1.0743
-0.0399173
-0.0547499
4.51191e-009
3.1779e-012
3.0342e-008
-4.55636e-013
1.93851e-007
7.94742e-012
1.11922e-006
3.91864e-012
6.10395e-006
-4.16467e-012
3.01957e-005
-2.90434e-013
0.000138876
-1.42286e-012
0.000579243
3.48432e-012
0.00220408
-1.11378e-012
0.00756632
3.40172e-013
0.0223296
-1.27054e-012
0.0571968
2.90923e-012
0.126731
1.98197e-012
0.246172
1.04938e-012
0.413845
1.29008e-012
0.610444
1.80744e-013
0.807996
8.49987e-013
0.987092
1.23457e-012
1.14122
-2.14939e-013
1.26885
1.42775e-013
1.37568
-9.91651e-013
1.45684
5.90639e-014
1.5211
7.73381e-013
1.58102
-3.74811e-013
1.61557
-3.21076e-013
1.63077
-3.03535e-013
1.65195
-4.80838e-013
1.67693
-3.42948e-013
1.68586
-5.5389e-013
1.67953
-2.71339e-013
1.6643
-4.996e-015
1.64949
-5.54001e-014
1.65107
-4.1922e-013
1.6649
-2.48024e-013
1.67382
-3.47389e-013
1.67864
1.2349e-012
1.68127
-2.34835e-011
1.68145
-3.16932e-011
1.66946
-4.08322e-011
1.60485
-8.30468e-011
1.44344
-1.24485e-010
1.30356
-1.89567e-010
1.20247
-2.92941e-010
1.13596
-6.32134e-010
1.09331
-2.31125e-009
1.06756
-7.22089e-009
1.0533
-5.39711e-009
1.04915
-7.06094e-007
1.04873
6.85906e-007
1.03383
5.81326e-005
1.02968
-0.00141919
1.03189
-0.00281969
1.03688
-0.00475626
1.03542
-0.00681536
1.0376
-0.0115935
1.03411
-0.0154458
1.03575
-0.0198088
1.044
-0.0289315
1.04028
-0.0384333
-0.0548079
4.36612e-009
2.47002e-012
2.93616e-008
2.08722e-013
1.87587e-007
8.29292e-012
1.08305e-006
4.65938e-012
5.90672e-006
-4.32809e-012
2.92201e-005
2.64677e-013
0.000134389
-1.24523e-012
0.000560526
3.04734e-012
0.00213287
-1.35536e-012
0.00732183
2.21156e-013
0.021608
-1.77236e-012
0.0553486
2.92699e-012
0.122636
2.36433e-012
0.238218
1.22657e-012
0.400473
1.22702e-012
0.590719
-4.08562e-013
0.781888
1.14087e-012
0.955197
8.4599e-013
1.10434
-3.15303e-014
1.22785
4.41203e-013
1.33123
-9.00613e-013
1.40976
4.79616e-014
1.47195
7.94698e-013
1.52993
-2.04503e-013
1.56337
-4.91829e-013
1.57808
-4.17888e-013
1.59857
-4.44311e-013
1.62274
-4.27103e-013
1.63139
-5.05151e-013
1.62526
-2.80553e-013
1.61052
-7.00551e-014
1.59619
-1.32117e-013
1.59772
-3.0298e-013
1.6111
-3.5949e-013
1.61974
-4.0723e-013
1.6244
1.27509e-012
1.62694
-2.37308e-011
1.62712
-3.41995e-011
1.61551
-4.49029e-011
1.553
-9.42902e-011
1.3968
-1.43261e-010
1.26144
-2.19461e-010
1.16362
-3.3941e-010
1.09926
-7.2737e-010
1.05798
-2.58373e-009
1.03306
-8.10645e-009
1.01927
-9.82085e-009
1.01525
-7.15101e-007
1.01486
1.76864e-007
1.00044
5.71111e-005
0.996535
-0.00137642
0.998838
-0.00316743
1.00429
-0.00480427
1.00217
-0.00608573
1.00246
-0.00981701
1.00224
-0.0123958
0.999791
-0.0184454
1.01016
-0.0280323
1.00615
-0.0379796
-0.0536871
4.22504e-009
1.84119e-012
2.84129e-008
2.43361e-013
1.81526e-007
9.166e-012
1.04806e-006
5.20384e-012
5.71586e-006
-3.88312e-012
2.82759e-005
3.78364e-013
0.000130046
-9.05942e-013
0.000542414
2.45848e-012
0.00206395
-1.2168e-012
0.00708525
1.63425e-013
0.0209098
-1.77636e-012
0.0535602
2.80664e-012
0.118674
2.72582e-012
0.230521
1.64269e-012
0.387533
1.3598e-012
0.571632
-6.34603e-013
0.756624
9.76108e-013
0.924332
1.18439e-012
1.06866
-2.26485e-014
1.18818
3.93463e-013
1.28821
-7.84928e-013
1.36421
3.66374e-014
1.42439
5.72653e-013
1.4805
-2.66676e-013
1.51285
-6.01963e-013
1.52709
-4.51417e-013
1.54692
-5.19806e-013
1.57031
-1.96065e-013
1.57867
-5.15588e-013
1.57274
-3.40838e-013
1.55848
-8.43769e-014
1.54462
-1.54876e-013
1.54609
-2.27152e-013
1.55904
-2.88103e-013
1.5674
-4.45421e-013
1.57191
1.20426e-012
1.57437
-2.35731e-011
1.57454
-3.69427e-011
1.56331
-4.95423e-011
1.50282
-1.07332e-010
1.35167
-1.65215e-010
1.22068
-2.5363e-010
1.12602
-3.91652e-010
1.06374
-8.27304e-010
1.0238
-2.82569e-009
0.999683
-8.90413e-009
0.986334
-1.6626e-008
0.982443
-7.16601e-007
0.982084
-3.9478e-007
0.968112
5.37406e-005
0.964402
-0.00126888
0.96671
-0.00350161
0.972217
-0.00487681
0.970103
-0.00568984
0.969614
-0.0083788
0.971022
-0.0107002
0.968624
-0.0156526
0.977269
-0.0251304
0.974377
-0.0368332
-0.0519803
4.08852e-009
1.7284e-012
2.74948e-008
-7.81597e-014
1.75661e-007
1.01377e-011
1.01419e-006
5.42144e-012
5.53117e-006
-3.92042e-012
2.73622e-005
7.08766e-013
0.000125844
-1.26477e-012
0.000524888
1.89448e-012
0.00199726
-9.91207e-013
0.00685631
7.99361e-014
0.0202342
-1.6156e-012
0.0518296
3.03313e-012
0.114839
2.86704e-012
0.223072
1.30607e-012
0.375011
1.24656e-012
0.553161
-7.70939e-013
0.732176
1.20837e-012
0.894465
1.12399e-012
1.03413
-5.59552e-014
1.14979
3.5083e-013
1.24659
-6.17728e-013
1.32013
9.37028e-014
1.37837
6.08846e-013
1.43266
-4.44755e-013
1.46397
-6.47038e-013
1.47774
-5.42233e-013
1.49694
-5.9952e-013
1.51957
-2.20823e-013
1.52766
-4.65739e-013
1.52192
-1.99063e-013
1.50812
3.53051e-014
1.49471
-1.75526e-013
1.49613
-2.2482e-013
1.50867
-2.41251e-013
1.51676
-5.01599e-013
1.52112
1.0888e-012
1.5235
-2.32101e-011
1.52367
-4.02617e-011
1.5128
-5.53084e-011
1.45426
-1.22293e-010
1.30799
-1.90351e-010
1.18124
-2.92163e-010
1.08963
-4.49473e-010
1.02937
-9.32665e-010
0.990715
-3.06938e-009
0.967381
-9.70077e-009
0.954463
-2.59573e-008
0.950698
-6.82546e-007
0.95036
-6.82284e-007
0.936828
4.9207e-005
0.933412
-0.00116413
0.935419
-0.0036806
0.94101
-0.00465446
0.938574
-0.00511369
0.937823
-0.00709591
0.940513
-0.00908427
0.938005
-0.012578
0.945323
-0.0209682
0.943314
-0.0342939
-0.0503131
3.95642e-009
2.51177e-012
2.66064e-008
1.94511e-013
1.69985e-007
1.05951e-011
9.81423e-007
5.23315e-012
5.35245e-006
-3.46034e-012
2.64781e-005
1.23634e-012
0.000121778
-1.48148e-012
0.000507928
1.59606e-012
0.00193272
-7.10543e-013
0.00663477
-7.10543e-014
0.0195804
-1.31894e-012
0.0501548
3.3582e-012
0.111128
3.06599e-012
0.215864
6.95888e-013
0.362893
1.17062e-012
0.535288
-3.74811e-013
0.708517
1.92601e-012
0.865563
6.48814e-013
1.00071
-3.63709e-013
1.11263
5.1692e-013
1.20631
-2.91989e-013
1.27747
2.67564e-013
1.33383
7.44294e-013
1.38637
-5.0826e-013
1.41666
-6.20171e-013
1.42999
-5.44675e-013
1.44857
-8.77742e-013
1.47047
-2.90212e-013
1.4783
-4.79394e-013
1.47275
-2.21267e-013
1.45939
1.05249e-013
1.44641
-1.77081e-013
1.44779
-1.67644e-013
1.45992
-2.83218e-013
1.46775
-4.42757e-013
1.47197
1.09834e-012
1.47427
-2.27213e-011
1.47443
-4.43123e-011
1.46392
-6.21108e-011
1.40727
-1.39597e-010
1.26573
-2.18834e-010
1.14307
-3.35129e-010
1.05443
-5.12869e-010
0.996106
-1.04452e-009
0.958703
-3.33371e-009
0.936123
-1.05839e-008
0.923622
-3.71259e-008
0.919978
-6.09669e-007
0.919659
-6.58538e-007
0.906552
4.29469e-005
0.903391
-0.00101313
0.904984
-0.00340273
0.91076
-0.00427326
0.908177
-0.00430192
0.907503
-0.00564831
0.910724
-0.00727203
0.907836
-0.0103106
0.914831
-0.0178311
0.913754
-0.0314923
-0.0489182
3.82857e-009
3.05533e-012
2.57467e-008
3.03757e-013
1.64492e-007
1.15508e-011
9.49711e-007
5.16831e-012
5.1795e-006
-3.0802e-012
2.56225e-005
1.7133e-012
0.000117843
-2.02238e-012
0.000491515
1.43086e-012
0.00187027
-5.92415e-013
0.00642039
-3.58824e-013
0.0189477
-1.08624e-012
0.0485342
2.97984e-012
0.107538
3.05533e-012
0.208889
7.02549e-013
0.351167
1.36424e-012
0.517991
-1.10578e-013
0.685624
1.69464e-012
0.837595
8.94396e-013
0.968379
-8.08686e-013
1.07668
3.42393e-013
1.16733
-1.80522e-013
1.2362
1.76303e-013
1.29073
7.90035e-013
1.34157
-2.78222e-013
1.37089
-4.865e-013
1.38379
-6.04405e-013
1.40176
-5.51337e-013
1.42295
-4.58522e-013
1.43053
-5.67657e-013
1.42516
-1.98397e-013
1.41224
3.9968e-015
1.39967
-2.30926e-014
1.40101
-2.48579e-013
1.41274
-2.44804e-013
1.42032
-3.85247e-013
1.42441
1.06026e-012
1.42663
-2.19297e-011
1.42679
-4.89131e-011
1.41661
-6.98324e-011
1.36179
-1.58936e-010
1.22483
-2.50313e-010
1.10613
-3.82076e-010
1.02036
-5.81246e-010
0.963919
-1.1637e-009
0.927725
-3.63823e-009
0.905875
-1.15807e-008
0.893778
-4.83667e-008
0.890252
-5.18505e-007
0.889948
-6.81855e-007
0.877253
3.24433e-005
0.874364
-0.0007669
0.875662
-0.00275335
0.88133
-0.0035057
0.878492
-0.00318152
0.877983
-0.00437999
0.882091
-0.00630869
0.880301
-0.00878134
0.885042
-0.0154793
0.885028
-0.0293367
-0.0476089
3.70487e-009
3.58202e-012
2.49148e-008
7.14984e-013
1.59177e-007
1.26095e-011
9.19024e-007
4.57856e-012
5.01214e-006
-2.14406e-012
2.47946e-005
2.2089e-012
0.000114035
-2.30749e-012
0.000475633
1.13953e-012
0.00180984
-4.79616e-014
0.00621293
-6.31495e-013
0.0183355
-5.60441e-013
0.046966
3.43636e-012
0.104063
3.16902e-012
0.202139
5.71987e-013
0.33982
1.69509e-012
0.501254
-4.80949e-013
0.66347
2.04636e-012
0.810531
6.33271e-013
0.937089
-9.28146e-013
1.04189
1.95399e-014
1.12961
-3.81473e-013
1.19625
9.54792e-014
1.24902
8.60645e-013
1.29822
-2.03171e-013
1.32659
-5.14699e-013
1.33907
-5.29354e-013
1.35647
-6.04405e-013
1.37697
-4.23217e-013
1.38431
-5.27356e-013
1.37911
-2.16938e-013
1.3666
1.23235e-014
1.35445
4.44089e-016
1.35574
-1.51101e-013
1.3671
-2.71339e-013
1.37443
-3.36398e-013
1.37838
9.63674e-013
1.38054
-2.10763e-011
1.38069
-5.41434e-011
1.37084
-7.85282e-011
1.31779
-1.80432e-010
1.18525
-2.84693e-010
1.07039
-4.31962e-010
0.987386
-6.53081e-010
0.932773
-1.28857e-009
0.897749
-3.97494e-009
0.876604
-1.26729e-008
0.864898
-5.85793e-008
0.861486
-4.20601e-007
0.861196
-8.74595e-007
0.848901
1.75338e-005
0.846284
-0.000425251
0.847395
-0.00189797
0.852797
-0.00246257
0.84987
-0.00204768
0.849076
-0.00321553
0.853709
-0.00519293
0.851915
-0.00782416
0.854919
-0.0147901
0.857611
-0.0269956
-0.0459277
3.58515e-009
3.76676e-012
2.41097e-008
1.43707e-012
1.54034e-007
1.27542e-011
8.89328e-007
4.53415e-012
4.85018e-006
-1.33049e-012
2.39935e-005
2.06413e-012
0.000110351
-2.53664e-012
0.000460265
4.43201e-013
0.00175136
5.59552e-013
0.00601218
-4.75175e-013
0.017743
-4.18332e-013
0.0454484
3.7863e-012
0.1007
3.04645e-012
0.195608
5.9952e-013
0.32884
1.80211e-012
0.485057
-4.20997e-013
0.642032
2.61702e-012
0.784341
3.62821e-013
0.906809
-8.3844e-013
1.00823
-1.53211e-013
1.09311
-6.59028e-013
1.1576
4.86278e-014
1.20867
8.3844e-013
1.25627
-2.44027e-013
1.28373
-5.91971e-013
1.29581
-4.3987e-013
1.31264
-5.60885e-013
1.33248
-5.53335e-013
1.33958
-6.02851e-013
1.33455
-1.29674e-013
1.32245
3.20854e-014
1.31068
-7.58282e-014
1.31193
-1.61426e-013
1.32292
-1.54321e-013
1.33002
-3.60489e-013
1.33384
8.17235e-013
1.33593
-2.02128e-011
1.33607
-5.98549e-011
1.32655
-8.8047e-011
1.27521
-2.03411e-010
1.14696
-3.20953e-010
1.0358
-4.84186e-010
0.955481
-7.27934e-010
0.902633
-1.4174e-009
0.86874
-4.33794e-009
0.848279
-1.38224e-008
0.836952
-6.74553e-008
0.833649
-3.14466e-007
0.83337
-1.11302e-006
0.821465
8.33208e-007
0.819094
-7.92829e-005
0.820079
-0.00101061
0.825178
-0.00132836
0.822427
-0.00110802
0.821592
-0.00201754
0.826245
-0.00366924
0.8236
-0.00674121
0.824142
-0.0142464
0.830347
-0.0245984
-0.0433616
3.46931e-009
4.41158e-012
2.33307e-008
1.83142e-012
1.49057e-007
1.26308e-011
8.60592e-007
4.53149e-012
4.69346e-006
-1.11644e-012
2.32182e-005
2.21156e-012
0.000106785
-2.61657e-012
0.000445393
6.34159e-013
0.00169477
1.44595e-012
0.00581791
-6.75904e-013
0.0171697
-2.61124e-013
0.0439799
4.03233e-012
0.0974464
2.59526e-012
0.189287
6.03073e-013
0.318215
1.77547e-012
0.469384
-1.90958e-014
0.621286
1.99796e-012
0.758997
6.91447e-013
0.877508
-7.09655e-013
0.97565
-3.28182e-013
1.05779
-5.46674e-013
1.12019
-8.19345e-014
1.16961
8.08908e-013
1.21568
-3.71703e-013
1.24225
-5.60885e-013
1.25394
-4.30767e-013
1.27022
-4.51195e-013
1.28943
-4.91607e-013
1.2963
-5.22027e-013
1.29143
-1.85407e-014
1.27972
3.55271e-015
1.26833
-6.26166e-014
1.26954
-1.12577e-013
1.28018
-1.13243e-013
1.28704
-2.98872e-013
1.29074
7.4396e-013
1.29276
-1.92498e-011
1.2929
-6.59084e-011
1.28368
-9.80802e-011
1.23401
-2.27626e-010
1.1099
-3.585e-010
1.00234
-5.37855e-010
0.924608
-8.05118e-010
0.873467
-1.54798e-009
0.84067
-4.71485e-009
0.82087
-1.49871e-008
0.809908
-7.48856e-008
0.806712
-2.08734e-007
0.806442
-1.16975e-006
0.794918
-1.46324e-005
0.792745
0.000187435
0.793636
-0.000178141
0.798525
-0.000264294
0.795944
-0.000150986
0.795376
-0.000854588
0.800031
-0.00242831
0.796992
-0.00576229
0.796154
-0.0132881
0.803154
-0.0228206
-0.0412305
3.35721e-009
4.40892e-012
2.25768e-008
2.11831e-012
1.4424e-007
1.21023e-011
8.32784e-007
4.99689e-012
4.54181e-006
-8.65086e-013
2.24679e-005
1.75682e-012
0.000103334
-2.20712e-012
0.000431001
5.61329e-013
0.00164001
2.15294e-012
0.00562992
-2.44249e-013
0.0166149
9.76996e-014
0.0425588
3.64242e-012
0.0942977
2.6974e-012
0.183171
4.45866e-013
0.307932
2.05436e-012
0.454217
2.83329e-013
0.601211
1.74394e-012
0.734472
8.85514e-013
0.849154
-7.15872e-013
0.944124
-5.92415e-013
1.02361
-6.55032e-013
1.084
-1.41664e-013
1.13182
6.6902e-013
1.1764
-2.58016e-013
1.20211
-4.46088e-013
1.21342
-4.18776e-013
1.22918
-3.77476e-013
1.24776
-5.41789e-013
1.25441
-4.71845e-013
1.2497
2.73115e-014
1.23837
-9.4591e-014
1.22735
-9.34808e-014
1.22852
-1.53211e-013
1.23881
-1.20015e-013
1.24545
-2.8455e-013
1.24904
6.30718e-013
1.25099
-1.81901e-011
1.25113
-7.23854e-011
1.2422
-1.08653e-010
1.19413
-2.52332e-010
1.07403
-3.96878e-010
0.969948
-5.92441e-010
0.894731
-8.83768e-010
0.845244
-1.6787e-009
0.813506
-5.09635e-009
0.794345
-1.61377e-008
0.783738
-8.09271e-008
0.780646
-1.12169e-007
0.780382
-1.02217e-006
0.769229
-2.70837e-005
0.767223
0.000347015
0.768055
0.000536898
0.772791
0.000676384
0.770356
0.000808881
0.770041
0.000235451