/*--------------------------------*- C++ -*----------------------------------*\
| =========                 |                                                 |
| \\      /  F ield         | OpenFOAM: The Open Source CFD Toolbox           |
|  \\    /   O peration     | Version:  5.x                                   |
|   \\  /    A nd           | Web:      www.OpenFOAM.org                      |
|    \\/     M anipulation  |                                                 |
\*---------------------------------------------------------------------------*/
/*   Windows 32 and 64 bit porting by blueCAPE: http://www.bluecape.com.pt   *\
|  Based on Windows porting (2.0.x v4) by Symscape: http://www.symscape.com   |
\*---------------------------------------------------------------------------*/
FoamFile
{
    version     2.0;
    format      ascii;
    class       volVectorField;
    location    "0.005";
    object      U;
}
// * * * * * * * * * * * * * * * * * * * * * * * * * * * * * * * * * * * * * //

dimensions      [0 1 -1 0 0 0 0];

internalField   nonuniform List<vector> 
10000
(
(7.48495e-008 1.94659e-012 0)
(6.19351e-007 2.4594e-012 0)
(4.04111e-006 -1.93591e-012 0)
(2.56898e-005 -3.58305e-013 0)
(0.000145521 -2.2558e-012 0)
(0.000786581 -1.43648e-012 0)
(0.00381197 2.05065e-012 0)
(0.0172876 1.94446e-012 0)
(0.0703708 4.59411e-013 0)
(0.260391 -1.36102e-012 0)
(0.837171 1.23035e-013 0)
(2.35636 2.96718e-012 0)
(5.77798 1.03634e-012 0)
(12.4368 1.94917e-012 0)
(23.4627 -2.15222e-012 0)
(38.8696 -3.51638e-012 0)
(57.6576 2.68344e-012 0)
(77.8984 9.35993e-012 0)
(98.6165 -6.70269e-012 0)
(118.857 -2.43481e-012 0)
(138.673 4.75489e-012 0)
(157.543 3.05227e-012 0)
(175.541 3.58372e-012 0)
(192.75 -3.3336e-012 0)
(208.766 -3.62663e-013 0)
(223.569 -6.14932e-013 0)
(237.081 2.28575e-012 0)
(249.249 2.66041e-012 0)
(259.801 1.03942e-012 0)
(268.925 9.23926e-013 0)
(276.637 2.11974e-012 0)
(282.194 2.83671e-013 0)
(286.001 -2.51037e-012 0)
(288.97 -4.52268e-013 0)
(291.008 -2.09482e-012 0)
(292.075 -3.13554e-015 0)
(292.596 -1.40245e-011 0)
(293.05 -1.83689e-011 0)
(293.564 -2.2223e-011 0)
(293.989 -3.4944e-011 0)
(294.131 -5.3152e-011 0)
(293.939 -8.5329e-011 0)
(293.5 -1.34837e-010 0)
(292.891 -2.664e-010 0)
(292.246 -6.50368e-010 0)
(291.742 -2.46963e-009 0)
(291.523 -3.44071e-008 0)
(291.624 -9.39731e-008 0)
(291.908 -3.24787e-007 0)
(292.105 -3.38186e-006 0)
(292.119 3.49801e-005 0)
(292.056 -0.003199 0)
(291.991 -0.0113954 0)
(291.923 -0.0206445 0)
(291.873 -0.0323911 0)
(291.894 -0.0513898 0)
(291.963 -0.0628989 0)
(291.675 -0.0855963 0)
(291.2 -0.126014 0)
(287.458 -0.22317 0)
(7.48499e-008 -1.41618e-012 0)
(6.1935e-007 -3.99744e-012 0)
(4.04111e-006 1.10908e-013 0)
(2.56898e-005 6.12615e-013 0)
(0.000145521 -3.8496e-012 0)
(0.000786581 -5.51359e-014 0)
(0.00381197 -2.79836e-012 0)
(0.0172876 2.74466e-012 0)
(0.0703708 -4.22563e-012 0)
(0.260391 1.34776e-012 0)
(0.837171 1.08899e-012 0)
(2.35636 3.84857e-012 0)
(5.77798 4.29766e-012 0)
(12.4368 2.19517e-012 0)
(23.4627 -1.2557e-012 0)
(38.8696 -9.81075e-013 0)
(57.6576 -3.63159e-012 0)
(77.8984 -3.42342e-013 0)
(98.6165 6.27771e-012 0)
(118.857 3.43624e-012 0)
(138.673 -1.29961e-012 0)
(157.543 -2.69247e-013 0)
(175.541 -1.87975e-013 0)
(192.75 4.56778e-013 0)
(208.766 -1.26487e-012 0)
(223.569 -1.44474e-012 0)
(237.081 -1.00141e-012 0)
(249.249 -1.48113e-012 0)
(259.801 -2.26784e-012 0)
(268.925 -1.24139e-012 0)
(276.637 -7.18009e-013 0)
(282.194 -1.98957e-012 0)
(286.001 -2.06941e-012 0)
(288.97 1.01314e-012 0)
(291.008 5.15427e-013 0)
(292.075 3.44587e-012 0)
(292.596 -3.89963e-011 0)
(293.05 -5.0876e-011 0)
(293.564 -6.14744e-011 0)
(293.989 -9.92155e-011 0)
(294.131 -1.54649e-010 0)
(293.939 -2.56397e-010 0)
(293.5 -4.06025e-010 0)
(292.891 -7.9769e-010 0)
(292.246 -1.96126e-009 0)
(291.742 -7.47438e-009 0)
(291.523 -1.04125e-007 0)
(291.624 -2.94653e-007 0)
(291.908 -1.01783e-006 0)
(292.105 -1.00272e-005 0)
(292.119 0.000102095 0)
(292.054 -0.0104868 0)
(291.988 -0.0355609 0)
(291.919 -0.067322 0)
(291.868 -0.10181 0)
(291.888 -0.149863 0)
(291.957 -0.189128 0)
(291.663 -0.259061 0)
(291.173 -0.38897 0)
(287.438 -0.683549 0)
(7.48494e-008 -2.8669e-012 0)
(6.19351e-007 1.55328e-012 0)
(4.04111e-006 -1.48882e-013 0)
(2.56898e-005 4.9332e-012 0)
(0.000145521 -8.68209e-012 0)
(0.000786581 -1.65092e-012 0)
(0.00381197 3.85561e-013 0)
(0.0172876 2.48541e-012 0)
(0.0703708 -3.9334e-012 0)
(0.260391 2.61225e-012 0)
(0.837171 1.83117e-012 0)
(2.35636 6.36091e-012 0)
(5.77798 2.49358e-012 0)
(12.4368 5.11481e-012 0)
(23.4627 2.03496e-013 0)
(38.8696 -3.51747e-012 0)
(57.6576 -9.38378e-013 0)
(77.8984 1.13511e-011 0)
(98.6165 -7.94253e-013 0)
(118.857 2.59143e-012 0)
(138.673 4.40089e-014 0)
(157.543 2.95646e-013 0)
(175.541 3.31888e-012 0)
(192.75 5.81324e-013 0)
(208.766 -6.81523e-013 0)
(223.569 -1.15447e-012 0)
(237.081 1.58028e-012 0)
(249.249 1.16799e-013 0)
(259.801 -1.4336e-013 0)
(268.925 -1.32475e-012 0)
(276.637 4.40065e-012 0)
(282.194 2.98841e-012 0)
(286.001 -1.52168e-012 0)
(288.97 -1.78249e-012 0)
(291.008 -2.44895e-012 0)
(292.075 1.52346e-012 0)
(292.596 -6.8602e-011 0)
(293.05 -8.74435e-011 0)
(293.564 -1.04983e-010 0)
(293.989 -1.67216e-010 0)
(294.131 -2.6397e-010 0)
(293.939 -4.34602e-010 0)
(293.5 -6.8365e-010 0)
(292.891 -1.34429e-009 0)
(292.246 -3.35684e-009 0)
(291.742 -1.28003e-008 0)
(291.523 -1.76264e-007 0)
(291.624 -5.26391e-007 0)
(291.908 -1.97215e-006 0)
(292.105 -1.76256e-005 0)
(292.118 0.000162699 0)
(292.051 -0.0208252 0)
(291.981 -0.0628155 0)
(291.912 -0.1279 0)
(291.859 -0.176132 0)
(291.878 -0.241675 0)
(291.943 -0.32514 0)
(291.638 -0.470436 0)
(291.12 -0.772393 0)
(287.398 -1.03175 0)
(7.48497e-008 -8.44401e-012 0)
(6.19351e-007 -2.85346e-012 0)
(4.04111e-006 -2.8569e-013 0)
(2.56898e-005 -7.08082e-013 0)
(0.000145521 -8.48963e-012 0)
(0.000786581 -1.46804e-012 0)
(0.00381197 -1.41125e-012 0)
(0.0172876 2.71123e-012 0)
(0.0703708 -5.78292e-012 0)
(0.260391 7.90012e-012 0)
(0.837171 2.4163e-012 0)
(2.35636 6.30477e-012 0)
(5.77798 4.16944e-012 0)
(12.4368 2.89618e-012 0)
(23.4627 1.81386e-012 0)
(38.8696 1.98436e-012 0)
(57.6576 -2.87938e-012 0)
(77.8984 4.79879e-012 0)
(98.6165 8.555e-012 0)
(118.857 1.62323e-012 0)
(138.673 -2.15164e-012 0)
(157.543 -2.43993e-013 0)
(175.541 1.62986e-012 0)
(192.75 -1.36386e-012 0)
(208.766 -2.0976e-012 0)
(223.569 -1.24639e-012 0)
(237.081 -2.04421e-012 0)
(249.249 2.53762e-012 0)
(259.801 -2.54573e-012 0)
(268.925 -2.52985e-012 0)
(276.637 5.66809e-013 0)
(282.194 -3.8007e-013 0)
(286.001 -1.87717e-012 0)
(288.97 -2.26277e-012 0)
(291.008 -1.51303e-012 0)
(292.075 3.25987e-012 0)
(292.596 -9.38145e-011 0)
(293.05 -1.20802e-010 0)
(293.564 -1.46477e-010 0)
(293.989 -2.38088e-010 0)
(294.131 -3.7499e-010 0)
(293.939 -6.17626e-010 0)
(293.5 -9.8152e-010 0)
(292.891 -1.9426e-009 0)
(292.246 -4.94258e-009 0)
(291.742 -1.88166e-008 0)
(291.523 -2.51918e-007 0)
(291.624 -7.67188e-007 0)
(291.908 -3.16952e-006 0)
(292.105 -2.65438e-005 0)
(292.116 0.000203024 0)
(292.045 -0.0353074 0)
(291.971 -0.0984784 0)
(291.901 -0.197831 0)
(291.849 -0.244748 0)
(291.863 -0.320786 0)
(291.917 -0.487406 0)
(291.583 -0.730975 0)
(291.071 -1.15025 0)
(287.381 -1.28871 0)
(7.48496e-008 -7.65992e-012 0)
(6.19351e-007 -2.57242e-012 0)
(4.04111e-006 7.17024e-013 0)
(2.56898e-005 2.92972e-012 0)
(0.000145521 -9.67381e-012 0)
(0.000786581 -7.69897e-012 0)
(0.00381197 -2.55737e-013 0)
(0.0172876 3.17567e-012 0)
(0.0703708 -3.34849e-012 0)
(0.260391 6.55634e-012 0)
(0.837171 -3.01975e-013 0)
(2.35636 9.01487e-012 0)
(5.77798 4.62713e-012 0)
(12.4368 6.83282e-012 0)
(23.4627 6.79451e-012 0)
(38.8696 -4.41297e-012 0)
(57.6576 5.78255e-013 0)
(77.8984 6.81002e-012 0)
(98.6165 2.03799e-012 0)
(118.857 4.68185e-012 0)
(138.673 -3.29616e-012 0)
(157.543 -2.16273e-012 0)
(175.541 4.41444e-013 0)
(192.75 1.16389e-013 0)
(208.766 -1.54898e-012 0)
(223.569 -1.39782e-012 0)
(237.081 -4.43194e-013 0)
(249.249 1.45919e-012 0)
(259.801 -1.77649e-012 0)
(268.925 -5.90984e-013 0)
(276.637 8.48619e-013 0)
(282.194 2.46208e-012 0)
(286.001 -1.29155e-012 0)
(288.97 1.6619e-013 0)
(291.008 -2.78065e-012 0)
(292.075 3.62587e-012 0)
(292.596 -1.23308e-010 0)
(293.05 -1.5644e-010 0)
(293.564 -1.88557e-010 0)
(293.989 -3.13758e-010 0)
(294.131 -4.88875e-010 0)
(293.939 -8.1437e-010 0)
(293.5 -1.31531e-009 0)
(292.891 -2.61658e-009 0)
(292.246 -6.78394e-009 0)
(291.742 -2.582e-008 0)
(291.523 -3.33071e-007 0)
(291.624 -9.77496e-007 0)
(291.908 -1.97659e-006 0)
(292.105 1.78476e-007 0)
(292.113 -0.00256829 0)
(292.036 -0.045229 0)
(291.957 -0.139409 0)
(291.889 -0.254809 0)
(291.839 -0.312184 0)
(291.839 -0.386023 0)
(291.875 -0.642642 0)
(291.523 -0.962683 0)
(291.021 -1.37719 0)
(287.356 -1.54298 0)
(7.48498e-008 -8.29933e-012 0)
(6.19351e-007 -5.18418e-012 0)
(4.04111e-006 3.45215e-012 0)
(2.56898e-005 -1.61172e-012 0)
(0.000145521 -8.71778e-012 0)
(0.000786581 -7.58469e-012 0)
(0.00381197 -5.17639e-013 0)
(0.0172876 3.82567e-012 0)
(0.0703708 -3.95511e-012 0)
(0.260391 7.87092e-012 0)
(0.837171 6.80209e-013 0)
(2.35636 1.02012e-011 0)
(5.77798 5.28726e-012 0)
(12.4368 4.71099e-012 0)
(23.4627 5.17525e-012 0)
(38.8696 -1.32886e-012 0)
(57.6576 6.71053e-013 0)
(77.8984 5.51682e-012 0)
(98.6165 1.02682e-012 0)
(118.857 4.44404e-012 0)
(138.673 -1.2137e-012 0)
(157.543 -3.68281e-012 0)
(175.541 2.50435e-014 0)
(192.75 1.90119e-012 0)
(208.766 2.67703e-013 0)
(223.569 -1.10975e-012 0)
(237.081 3.02933e-012 0)
(249.249 5.36535e-013 0)
(259.801 -4.19205e-012 0)
(268.925 -4.25276e-012 0)
(276.637 -2.66083e-012 0)
(282.194 -2.06387e-012 0)
(286.001 -4.34582e-012 0)
(288.97 -2.77283e-012 0)
(291.008 -1.10174e-012 0)
(292.075 6.02151e-012 0)
(292.596 -1.52627e-010 0)
(293.05 -1.8803e-010 0)
(293.564 -2.2841e-010 0)
(293.989 -3.90423e-010 0)
(294.131 -6.11362e-010 0)
(293.939 -1.03184e-009 0)
(293.5 -1.68527e-009 0)
(292.891 -3.36854e-009 0)
(292.246 -8.98548e-009 0)
(291.742 -3.3984e-008 0)
(291.523 -4.16713e-007 0)
(291.624 -1.33767e-006 0)
(291.908 6.76132e-006 0)
(292.105 0.000129863 0)
(292.109 -0.0106422 0)
(292.025 -0.0486063 0)
(291.94 -0.171214 0)
(291.875 -0.295622 0)
(291.829 -0.358114 0)
(291.81 -0.486441 0)
(291.824 -0.780905 0)
(291.46 -1.16606 0)
(290.971 -1.4235 0)
(287.324 -1.67861 0)
(7.48497e-008 -3.72256e-012 0)
(6.19351e-007 -3.68061e-012 0)
(4.04111e-006 1.5781e-012 0)
(2.56898e-005 2.40789e-012 0)
(0.000145521 -1.14815e-011 0)
(0.000786581 -1.12895e-011 0)
(0.00381197 -3.04327e-012 0)
(0.0172876 4.42408e-012 0)
(0.0703708 -4.3647e-012 0)
(0.260391 8.90872e-012 0)
(0.837171 -2.83853e-014 0)
(2.35636 1.39889e-011 0)
(5.77798 4.32801e-012 0)
(12.4368 6.25218e-012 0)
(23.4627 6.41314e-012 0)
(38.8696 -6.01496e-014 0)
(57.6576 -2.07829e-012 0)
(77.8984 5.93912e-012 0)
(98.6165 2.30992e-012 0)
(118.857 4.22196e-012 0)
(138.673 -1.67427e-012 0)
(157.543 1.35369e-012 0)
(175.541 1.15656e-012 0)
(192.75 1.05824e-013 0)
(208.766 -7.3503e-014 0)
(223.569 9.136e-013 0)
(237.081 -1.65414e-013 0)
(249.249 6.27914e-013 0)
(259.801 -2.92318e-012 0)
(268.925 -9.26332e-013 0)
(276.637 -4.67199e-013 0)
(282.194 1.3562e-012 0)
(286.001 -5.68712e-013 0)
(288.97 -1.92275e-012 0)
(291.008 -2.51226e-012 0)
(292.075 5.39982e-012 0)
(292.596 -1.82924e-010 0)
(293.05 -2.22482e-010 0)
(293.564 -2.7297e-010 0)
(293.989 -4.78378e-010 0)
(294.131 -7.51663e-010 0)
(293.939 -1.26738e-009 0)
(293.5 -2.07511e-009 0)
(292.891 -4.20852e-009 0)
(292.246 -1.19254e-008 0)
(291.742 -4.36122e-008 0)
(291.523 -4.73495e-007 0)
(291.624 -2.60724e-006 0)
(291.908 2.47254e-005 0)
(292.104 0.000391588 0)
(292.106 -0.0207701 0)
(292.014 -0.0554409 0)
(291.922 -0.18979 0)
(291.862 -0.325873 0)
(291.81 -0.424487 0)
(291.773 -0.650223 0)
(291.768 -0.847161 0)
(291.418 -1.14858 0)
(290.935 -1.36716 0)
(287.273 -1.7264 0)
(7.48498e-008 2.82646e-013 0)
(6.19351e-007 -2.47018e-012 0)
(4.04111e-006 3.7328e-012 0)
(2.56898e-005 2.98669e-013 0)
(0.000145521 -1.01664e-011 0)
(0.000786581 -1.068e-011 0)
(0.00381197 -1.7538e-012 0)
(0.0172876 3.42994e-012 0)
(0.0703708 -5.23312e-012 0)
(0.260391 5.29954e-012 0)
(0.837171 -1.47033e-012 0)
(2.35636 1.01794e-011 0)
(5.77798 5.83148e-012 0)
(12.4368 4.87487e-012 0)
(23.4627 5.12739e-012 0)
(38.8696 -9.40269e-013 0)
(57.6576 1.75136e-012 0)
(77.8984 4.07419e-012 0)
(98.6165 1.79067e-013 0)
(118.857 6.81476e-013 0)
(138.673 1.28353e-012 0)
(157.543 -1.82389e-012 0)
(175.541 4.51487e-012 0)
(192.75 1.23143e-012 0)
(208.766 -1.34508e-012 0)
(223.569 1.32667e-012 0)
(237.081 -3.19735e-012 0)
(249.249 -8.16447e-015 0)
(259.801 -5.06714e-012 0)
(268.925 -4.67387e-012 0)
(276.637 3.25494e-013 0)
(282.194 -1.49076e-012 0)
(286.001 -4.63552e-012 0)
(288.97 -9.53162e-013 0)
(291.008 -3.63215e-012 0)
(292.075 7.3642e-012 0)
(292.596 -2.05716e-010 0)
(293.05 -2.52676e-010 0)
(293.564 -3.12634e-010 0)
(293.989 -5.71125e-010 0)
(294.131 -9.01197e-010 0)
(293.939 -1.51415e-009 0)
(293.5 -2.49165e-009 0)
(292.891 -5.21926e-009 0)
(292.246 -1.61676e-008 0)
(291.742 -5.51941e-008 0)
(291.523 -4.30772e-007 0)
(291.624 -6.99182e-006 0)
(291.908 5.07557e-005 0)
(292.102 0.000919881 0)
(292.102 -0.0393471 0)
(292.003 -0.084382 0)
(291.903 -0.214813 0)
(291.842 -0.341176 0)
(291.781 -0.459014 0)
(291.747 -0.675281 0)
(291.747 -0.813194 0)
(291.377 -0.99981 0)
(290.876 -1.41087 0)
(287.214 -1.82136 0)
(7.48497e-008 4.30976e-012 0)
(6.19352e-007 -1.52093e-012 0)
(4.04111e-006 4.13474e-012 0)
(2.56898e-005 3.41717e-012 0)
(0.000145521 -1.19551e-011 0)
(0.000786581 -1.00743e-011 0)
(0.00381197 -2.16415e-012 0)
(0.0172876 6.71124e-012 0)
(0.0703708 -3.6443e-012 0)
(0.260391 7.17456e-012 0)
(0.837171 -1.44011e-012 0)
(2.35636 1.21904e-011 0)
(5.77798 8.17903e-012 0)
(12.4368 5.267e-012 0)
(23.4627 4.92074e-012 0)
(38.8696 2.83045e-013 0)
(57.6576 7.25484e-013 0)
(77.8984 3.72314e-012 0)
(98.6165 -1.33619e-012 0)
(118.857 2.98568e-012 0)
(138.673 -4.76408e-012 0)
(157.543 2.95326e-014 0)
(175.541 2.67513e-012 0)
(192.75 7.27046e-013 0)
(208.766 5.35335e-013 0)
(223.569 1.35491e-013 0)
(237.081 -6.00767e-013 0)
(249.249 -6.82134e-013 0)
(259.801 -2.62142e-012 0)
(268.925 -1.04982e-012 0)
(276.637 1.7148e-012 0)
(282.194 9.664e-013 0)
(286.001 -7.70773e-013 0)
(288.97 -2.3849e-012 0)
(291.008 -3.31549e-012 0)
(292.075 7.90038e-012 0)
(292.596 -2.29522e-010 0)
(293.05 -2.86273e-010 0)
(293.564 -3.55941e-010 0)
(293.989 -6.68239e-010 0)
(294.131 -1.05142e-009 0)
(293.939 -1.77271e-009 0)
(293.5 -2.96362e-009 0)
(292.891 -6.4868e-009 0)
(292.246 -2.18442e-008 0)
(291.742 -6.96204e-008 0)
(291.523 -2.56738e-007 0)
(291.624 -1.46553e-005 0)
(291.908 5.9526e-005 0)
(292.099 0.00150676 0)
(292.095 -0.0607485 0)
(291.991 -0.116957 0)
(291.888 -0.217905 0)
(291.828 -0.334914 0)
(291.763 -0.419373 0)
(291.723 -0.573682 0)
(291.721 -0.767533 0)
(291.326 -0.967269 0)
(290.806 -1.48536 0)
(287.153 -2.01377 0)
(7.48496e-008 4.62085e-012 0)
(6.19351e-007 -5.47376e-013 0)
(4.04111e-006 8.65116e-012 0)
(2.56898e-005 2.37355e-012 0)
(0.000145521 -1.09327e-011 0)
(0.000786581 -8.53122e-012 0)
(0.00381197 -9.28565e-013 0)
(0.0172876 8.54945e-012 0)
(0.0703708 -2.73249e-012 0)
(0.260391 4.61188e-012 0)
(0.837171 -4.31363e-012 0)
(2.35636 1.12996e-011 0)
(5.77798 5.97697e-012 0)
(12.4368 2.96279e-012 0)
(23.4627 5.55666e-012 0)
(38.8696 1.21694e-012 0)
(57.6576 -2.57905e-013 0)
(77.8984 8.55031e-012 0)
(98.6165 7.22381e-013 0)
(118.857 1.7526e-012 0)
(138.673 -2.25115e-012 0)
(157.543 -1.045e-012 0)
(175.541 3.72622e-012 0)
(192.75 -2.53195e-012 0)
(208.766 -3.18652e-012 0)
(223.569 -2.11372e-012 0)
(237.081 -2.62131e-012 0)
(249.249 -4.21736e-012 0)
(259.801 -4.03351e-012 0)
(268.925 -4.4041e-012 0)
(276.637 -4.62073e-013 0)
(282.194 3.17439e-013 0)
(286.001 -3.33979e-012 0)
(288.97 -4.0163e-012 0)
(291.008 -3.66851e-012 0)
(292.075 1.09105e-011 0)
(292.596 -2.50307e-010 0)
(293.05 -3.16781e-010 0)
(293.564 -3.97412e-010 0)
(293.989 -7.63878e-010 0)
(294.131 -1.20905e-009 0)
(293.939 -2.0627e-009 0)
(293.5 -3.51217e-009 0)
(292.891 -7.981e-009 0)
(292.246 -2.85923e-008 0)
(291.742 -8.8197e-008 0)
(291.523 -5.46028e-008 0)
(291.624 -2.14369e-005 0)
(291.908 3.88503e-005 0)
(292.095 0.00172402 0)
(292.088 -0.0659085 0)
(291.983 -0.121798 0)
(291.875 -0.198745 0)
(291.815 -0.298206 0)
(291.748 -0.378478 0)
(291.699 -0.511241 0)
(291.691 -0.756047 0)
(291.27 -1.02277 0)
(290.719 -1.54687 0)
(287.079 -2.10486 0)
(7.48495e-008 8.21271e-012 0)
(6.19352e-007 -3.81144e-012 0)
(4.04111e-006 1.06369e-011 0)
(2.56898e-005 5.09128e-012 0)
(0.000145521 -1.12318e-011 0)
(0.000786581 -5.44665e-012 0)
(0.00381197 -1.39489e-012 0)
(0.0172876 1.01382e-011 0)
(0.0703708 4.99782e-013 0)
(0.260391 4.95671e-012 0)
(0.837171 2.66421e-013 0)
(2.35636 1.38746e-011 0)
(5.77798 4.70756e-012 0)
(12.4368 1.85699e-012 0)
(23.4627 6.1085e-012 0)
(38.8696 -1.02322e-012 0)
(57.6576 -7.26874e-013 0)
(77.8984 4.26434e-012 0)
(98.6165 1.47032e-012 0)
(118.857 1.3691e-012 0)
(138.673 -3.55889e-012 0)
(157.543 -2.22828e-012 0)
(175.541 3.91156e-012 0)
(192.75 -1.74329e-012 0)
(208.766 -2.50147e-012 0)
(223.569 -8.51824e-013 0)
(237.081 -1.42583e-012 0)
(249.249 -4.52535e-012 0)
(259.801 -2.11105e-012 0)
(268.925 -3.25915e-012 0)
(276.637 6.90454e-013 0)
(282.194 2.02793e-012 0)
(286.001 -2.03813e-012 0)
(288.97 -2.50017e-012 0)
(291.008 -2.54143e-012 0)
(292.075 1.26031e-011 0)
(292.596 -2.6794e-010 0)
(293.05 -3.44915e-010 0)
(293.564 -4.38087e-010 0)
(293.989 -8.65293e-010 0)
(294.131 -1.38642e-009 0)
(293.939 -2.38879e-009 0)
(293.5 -4.12265e-009 0)
(292.891 -9.64025e-009 0)
(292.246 -3.6192e-008 0)
(291.742 -1.11604e-007 0)
(291.523 4.03543e-008 0)
(291.624 -2.37041e-005 0)
(291.908 2.33963e-005 0)
(292.091 0.00165777 0)
(292.081 -0.0568752 0)
(291.975 -0.106942 0)
(291.866 -0.189791 0)
(291.805 -0.255716 0)
(291.735 -0.356126 0)
(291.672 -0.488493 0)
(291.65 -0.793889 0)
(291.213 -1.13001 0)
(290.649 -1.55568 0)
(287.008 -2.03501 0)
(7.48493e-008 6.52099e-012 0)
(6.19351e-007 -8.51359e-013 0)
(4.04111e-006 1.3576e-011 0)
(2.56898e-005 7.62366e-012 0)
(0.000145521 -9.44695e-012 0)
(0.000786581 -3.78664e-012 0)
(0.00381197 -2.13222e-013 0)
(0.0172876 7.73909e-012 0)
(0.0703708 -6.18493e-013 0)
(0.260391 5.21979e-013 0)
(0.837171 -2.93119e-012 0)
(2.35636 7.40256e-012 0)
(5.77798 5.6194e-012 0)
(12.4368 3.22921e-012 0)
(23.4627 2.43488e-012 0)
(38.8696 6.25538e-013 0)
(57.6576 4.64386e-012 0)
(77.8984 7.56172e-012 0)
(98.6165 -5.20534e-012 0)
(118.857 -5.59132e-014 0)
(138.673 -5.22789e-012 0)
(157.543 -7.60847e-013 0)
(175.541 5.04014e-012 0)
(192.75 -1.5157e-012 0)
(208.766 -3.58056e-012 0)
(223.569 -4.11831e-012 0)
(237.081 -3.45782e-012 0)
(249.249 -3.4155e-012 0)
(259.801 -5.58218e-012 0)
(268.925 -5.53639e-012 0)
(276.637 -1.30338e-013 0)
(282.194 -1.93212e-012 0)
(286.001 -3.91799e-012 0)
(288.97 -4.19061e-012 0)
(291.008 -5.01833e-012 0)
(292.075 1.28625e-011 0)
(292.596 -2.82777e-010 0)
(293.05 -3.74722e-010 0)
(293.564 -4.83803e-010 0)
(293.989 -9.80455e-010 0)
(294.131 -1.58894e-009 0)
(293.939 -2.75102e-009 0)
(293.5 -4.78796e-009 0)
(292.891 -1.14575e-008 0)
(292.246 -4.42592e-008 0)
(291.742 -1.38373e-007 0)
(291.523 1.91059e-008 0)
(291.624 -2.25301e-005 0)
(291.908 2.80719e-005 0)
(292.088 0.00160455 0)
(292.076 -0.0469787 0)
(291.967 -0.0904136 0)
(291.857 -0.170428 0)
(291.795 -0.227171 0)
(291.719 -0.375664 0)
(291.641 -0.55683 0)
(291.606 -0.781379 0)
(291.165 -1.12896 0)
(290.591 -1.47981 0)
(286.929 -2.00492 0)
(7.48493e-008 8.32716e-012 0)
(6.19352e-007 -3.04747e-012 0)
(4.04111e-006 1.70698e-011 0)
(2.56898e-005 6.58916e-012 0)
(0.000145521 -9.17555e-012 0)
(0.000786581 -6.22178e-013 0)
(0.00381197 -3.26591e-012 0)
(0.0172876 8.29528e-012 0)
(0.0703708 -8.81301e-013 0)
(0.260391 8.72655e-013 0)
(0.837171 -1.57259e-012 0)
(2.35636 9.43828e-012 0)
(5.77798 4.64996e-012 0)
(12.4368 3.07661e-012 0)
(23.4627 4.58309e-012 0)
(38.8696 2.16941e-012 0)
(57.6576 1.75343e-012 0)
(77.8984 4.30275e-012 0)
(98.6165 1.59556e-012 0)
(118.857 3.18628e-013 0)
(138.673 -5.19662e-012 0)
(157.543 -3.46918e-013 0)
(175.541 4.91506e-012 0)
(192.75 -3.90145e-012 0)
(208.766 -3.91506e-012 0)
(223.569 -2.39011e-012 0)
(237.081 -5.98619e-012 0)
(249.249 -6.68201e-013 0)
(259.801 -4.64131e-012 0)
(268.925 -2.2798e-012 0)
(276.637 1.07243e-012 0)
(282.194 -5.83425e-013 0)
(286.001 -3.7013e-012 0)
(288.97 -1.45317e-012 0)
(291.008 -3.02672e-012 0)
(292.075 1.55717e-011 0)
(292.596 -2.91855e-010 0)
(293.05 -4.02729e-010 0)
(293.564 -5.29654e-010 0)
(293.989 -1.10763e-009 0)
(294.131 -1.82228e-009 0)
(293.939 -3.17761e-009 0)
(293.5 -5.5501e-009 0)
(292.891 -1.3426e-008 0)
(292.246 -5.20263e-008 0)
(291.742 -1.65213e-007 0)
(291.523 -5.6722e-008 0)
(291.624 -2.09233e-005 0)
(291.908 3.79131e-005 0)
(292.086 0.00166641 0)
(292.071 -0.0429048 0)
(291.961 -0.0838318 0)
(291.85 -0.151103 0)
(291.781 -0.217445 0)
(291.694 -0.407813 0)
(291.62 -0.566658 0)
(291.576 -0.706392 0)
(291.119 -1.04685 0)
(290.528 -1.40646 0)
(286.836 -2.02251 0)
(7.4849e-008 4.87416e-012 0)
(6.19351e-007 1.37259e-012 0)
(4.04111e-006 1.59725e-011 0)
(2.56898e-005 9.90697e-012 0)
(0.000145521 -9.87287e-012 0)
(0.000786581 -6.77284e-013 0)
(0.00381197 -3.21692e-012 0)
(0.0172876 7.82227e-012 0)
(0.0703708 -4.2445e-012 0)
(0.260391 8.69045e-013 0)
(0.837171 -4.73287e-012 0)
(2.35636 6.56163e-012 0)
(5.77798 6.64321e-012 0)
(12.4368 3.20634e-012 0)
(23.4627 3.04548e-012 0)
(38.8696 -7.6643e-013 0)
(57.6576 4.21337e-012 0)
(77.8984 5.0093e-012 0)
(98.6165 -2.81674e-012 0)
(118.857 1.01593e-012 0)
(138.673 -5.1284e-012 0)
(157.543 8.32026e-013 0)
(175.541 4.41362e-012 0)
(192.75 -1.06452e-012 0)
(208.766 -1.20262e-012 0)
(223.569 -2.54329e-012 0)
(237.081 -2.75476e-012 0)
(249.249 -4.73177e-012 0)
(259.801 -5.56302e-012 0)
(268.925 -2.74627e-012 0)
(276.637 -1.13558e-012 0)
(282.194 -7.18429e-013 0)
(286.001 -5.35615e-012 0)
(288.97 -4.03247e-012 0)
(291.008 -5.21338e-012 0)
(292.075 1.51528e-011 0)
(292.596 -2.97687e-010 0)
(293.05 -4.34176e-010 0)
(293.564 -5.81972e-010 0)
(293.989 -1.25608e-009 0)
(294.131 -2.09632e-009 0)
(293.939 -3.68033e-009 0)
(293.5 -6.43307e-009 0)
(292.891 -1.55168e-008 0)
(292.246 -5.89988e-008 0)
(291.742 -1.89345e-007 0)
(291.523 -1.58926e-007 0)
(291.624 -2.04012e-005 0)
(291.909 3.07236e-005 0)
(292.084 0.00171327 0)
(292.067 -0.0423261 0)
(291.955 -0.089536 0)
(291.842 -0.149194 0)
(291.765 -0.210429 0)
(291.677 -0.364893 0)
(291.605 -0.463445 0)
(291.546 -0.655804 0)
(291.074 -0.999974 0)
(290.462 -1.36595 0)
(286.738 -2.00253 0)
(7.48492e-008 5.05554e-012 0)
(6.19352e-007 -5.4754e-013 0)
(4.04111e-006 1.97556e-011 0)
(2.56898e-005 1.01475e-011 0)
(0.000145521 -8.80678e-012 0)
(0.000786581 1.78073e-012 0)
(0.00381197 -2.58734e-012 0)
(0.0172876 7.1045e-012 0)
(0.0703708 -2.11982e-012 0)
(0.260391 4.48278e-013 0)
(0.837171 -4.586e-012 0)
(2.35636 9.18501e-012 0)
(5.77798 6.94333e-012 0)
(12.4368 4.01229e-012 0)
(23.4627 4.95749e-012 0)
(38.8696 -1.87794e-012 0)
(57.6576 4.2111e-012 0)
(77.8984 1.7293e-012 0)
(98.6165 2.35838e-012 0)
(118.857 2.8726e-012 0)
(138.673 -3.58695e-012 0)
(157.543 -1.32674e-013 0)
(175.541 4.53497e-012 0)
(192.75 -1.59576e-012 0)
(208.766 -5.00277e-012 0)
(223.569 -3.69333e-012 0)
(237.081 -3.92827e-012 0)
(249.249 -2.08379e-012 0)
(259.801 -3.73908e-012 0)
(268.925 -3.12999e-012 0)
(276.637 -2.06576e-013 0)
(282.194 -2.00852e-012 0)
(286.001 -1.57582e-012 0)
(288.97 -4.16913e-012 0)
(291.008 -4.91249e-012 0)
(292.075 1.5907e-011 0)
(292.596 -2.97566e-010 0)
(293.05 -4.69163e-010 0)
(293.564 -6.41109e-010 0)
(293.989 -1.42904e-009 0)
(294.131 -2.41676e-009 0)
(293.939 -4.25832e-009 0)
(293.5 -7.43616e-009 0)
(292.891 -1.77123e-008 0)
(292.246 -6.51524e-008 0)
(291.742 -2.10564e-007 0)
(291.523 -3.07252e-007 0)
(291.624 -2.0567e-005 0)
(291.909 9.67247e-006 0)
(292.082 0.00164874 0)
(292.062 -0.0405467 0)
(291.95 -0.103203 0)
(291.836 -0.154566 0)
(291.756 -0.19256 0)
(291.665 -0.29333 0)
(291.585 -0.384478 0)
(291.511 -0.586563 0)
(291.03 -0.938782 0)
(290.399 -1.3481 0)
(286.644 -1.94935 0)
(7.48489e-008 2.29988e-012 0)
(6.19352e-007 1.637e-012 0)
(4.04111e-006 1.95651e-011 0)
(2.56898e-005 1.25583e-011 0)
(0.000145521 -8.93438e-012 0)
(0.000786581 1.46216e-013 0)
(0.00381197 -1.90396e-012 0)
(0.0172876 4.40606e-012 0)
(0.0703708 -3.57084e-012 0)
(0.260391 5.57673e-013 0)
(0.837171 -4.44673e-012 0)
(2.35636 6.32624e-012 0)
(5.77798 8.03598e-012 0)
(12.4368 5.21956e-012 0)
(23.4627 3.91239e-012 0)
(38.8696 -2.15386e-012 0)
(57.6576 2.88544e-012 0)
(77.8984 7.4559e-012 0)
(98.6165 -2.26879e-012 0)
(118.857 1.19134e-012 0)
(138.673 -4.81401e-012 0)
(157.543 4.2528e-013 0)
(175.541 3.09183e-012 0)
(192.75 -1.98765e-012 0)
(208.766 -3.95793e-012 0)
(223.569 -3.15355e-012 0)
(237.081 -4.48385e-012 0)
(249.249 -1.85957e-012 0)
(259.801 -5.46358e-012 0)
(268.925 -2.9429e-012 0)
(276.637 -1.554e-012 0)
(282.194 -1.38077e-012 0)
(286.001 -3.91631e-012 0)
(288.97 -2.23577e-012 0)
(291.008 -6.1645e-012 0)
(292.075 1.34379e-011 0)
(292.596 -2.94863e-010 0)
(293.05 -5.1071e-010 0)
(293.564 -7.1323e-010 0)
(293.989 -1.62918e-009 0)
(294.131 -2.78673e-009 0)
(293.939 -4.91255e-009 0)
(293.5 -8.55134e-009 0)
(292.891 -2.00151e-008 0)
(292.246 -7.0969e-008 0)
(291.742 -2.30894e-007 0)
(291.523 -5.24672e-007 0)
(291.624 -2.00846e-005 0)
(291.909 -5.26721e-006 0)
(292.08 0.00152393 0)
(292.056 -0.0370759 0)
(291.944 -0.11297 0)
(291.833 -0.150881 0)
(291.749 -0.17278 0)
(291.656 -0.252579 0)
(291.571 -0.333101 0)
(291.48 -0.487381 0)
(290.983 -0.809956 0)
(290.336 -1.29082 0)
(286.547 -1.88864 0)
(7.48492e-008 4.92776e-012 0)
(6.19353e-007 -1.75556e-012 0)
(4.04111e-006 2.29798e-011 0)
(2.56898e-005 1.08501e-011 0)
(0.000145521 -7.93751e-012 0)
(0.000786581 3.2183e-012 0)
(0.00381197 -3.79283e-012 0)
(0.0172876 4.94383e-012 0)
(0.0703708 -1.58545e-012 0)
(0.260391 -6.67459e-014 0)
(0.837171 -4.28059e-012 0)
(2.35636 1.00783e-011 0)
(5.77798 8.10177e-012 0)
(12.4368 2.36737e-012 0)
(23.4627 4.00591e-012 0)
(38.8696 -2.35985e-012 0)
(57.6576 6.41402e-012 0)
(77.8984 1.87549e-012 0)
(98.6165 1.65862e-012 0)
(118.857 2.01825e-012 0)
(138.673 -1.44617e-012 0)
(157.543 5.00776e-013 0)
(175.541 3.83964e-012 0)
(192.75 -3.9282e-012 0)
(208.766 -4.94082e-012 0)
(223.569 -4.54548e-012 0)
(237.081 -6.03013e-012 0)
(249.249 -1.30367e-012 0)
(259.801 -2.99516e-012 0)
(268.925 -1.22319e-012 0)
(276.637 2.34436e-012 0)
(282.194 -2.32281e-012 0)
(286.001 -8.95173e-013 0)
(288.97 -3.62965e-012 0)
(291.008 -5.13317e-012 0)
(292.075 1.39142e-011 0)
(292.596 -2.8826e-010 0)
(293.05 -5.59724e-010 0)
(293.564 -7.99471e-010 0)
(293.989 -1.85851e-009 0)
(294.131 -3.20768e-009 0)
(293.939 -5.64703e-009 0)
(293.5 -9.78107e-009 0)
(292.891 -2.24495e-008 0)
(292.246 -7.70441e-008 0)
(291.742 -2.52758e-007 0)
(291.523 -8.00195e-007 0)
(291.624 -1.85016e-005 0)
(291.909 -1.06318e-005 0)
(292.078 0.00136466 0)
(292.051 -0.0331359 0)
(291.939 -0.110941 0)
(291.83 -0.141119 0)
(291.745 -0.151634 0)
(291.648 -0.206058 0)
(291.559 -0.27385 0)
(291.456 -0.394074 0)
(290.937 -0.67861 0)
(290.271 -1.18796 0)
(286.45 -1.83092 0)
(7.48487e-008 5.36054e-012 0)
(6.19352e-007 2.44738e-012 0)
(4.04111e-006 2.21985e-011 0)
(2.56898e-005 1.18205e-011 0)
(0.000145521 -7.21624e-012 0)
(0.000786581 2.54063e-012 0)
(0.00381197 -3.38092e-012 0)
(0.0172876 2.68957e-012 0)
(0.0703708 -1.42614e-012 0)
(0.260391 -5.94805e-014 0)
(0.837171 -2.76812e-012 0)
(2.35636 7.40667e-012 0)
(5.77798 8.89326e-012 0)
(12.4368 2.01044e-012 0)
(23.4627 3.25502e-012 0)
(38.8696 -5.53619e-013 0)
(57.6576 7.20276e-012 0)
(77.8984 3.19452e-012 0)
(98.6165 -4.36054e-012 0)
(118.857 2.59344e-012 0)
(138.673 -1.36368e-012 0)
(157.543 2.60513e-012 0)
(175.541 4.99315e-012 0)
(192.75 -2.35277e-012 0)
(208.766 -3.35573e-012 0)
(223.569 -4.32899e-012 0)
(237.081 -7.05367e-012 0)
(249.249 -4.39296e-012 0)
(259.801 -6.00609e-012 0)
(268.925 -2.6147e-012 0)
(276.637 -2.66648e-013 0)
(282.194 -1.11372e-012 0)
(286.001 -2.90518e-012 0)
(288.97 -3.01698e-012 0)
(291.008 -5.81481e-012 0)
(292.075 1.2533e-011 0)
(292.596 -2.81636e-010 0)
(293.05 -6.19844e-010 0)
(293.564 -9.00219e-010 0)
(293.989 -2.11973e-009 0)
(294.131 -3.6776e-009 0)
(293.939 -6.45566e-009 0)
(293.5 -1.1118e-008 0)
(292.891 -2.5041e-008 0)
(292.246 -8.38363e-008 0)
(291.742 -2.77593e-007 0)
(291.523 -1.10202e-006 0)
(291.624 -1.60921e-005 0)
(291.909 -1.20675e-005 0)
(292.077 0.00111778 0)
(292.046 -0.0270067 0)
(291.934 -0.0956771 0)
(291.828 -0.124518 0)
(291.742 -0.122307 0)
(291.643 -0.164661 0)
(291.55 -0.226028 0)
(291.435 -0.32493 0)
(290.893 -0.579528 0)
(290.204 -1.09332 0)
(286.351 -1.7838 0)
(7.48491e-008 6.39993e-012 0)
(6.19353e-007 -1.0751e-012 0)
(4.04111e-006 2.68945e-011 0)
(2.56898e-005 1.02992e-011 0)
(0.000145521 -6.16848e-012 0)
(0.000786581 5.19495e-012 0)
(0.00381197 -5.71943e-012 0)
(0.0172876 3.55078e-012 0)
(0.0703708 -1.42364e-012 0)
(0.260391 -1.69039e-012 0)
(0.837171 -2.71748e-012 0)
(2.35636 9.59927e-012 0)
(5.77798 8.57797e-012 0)
(12.4368 1.76052e-012 0)
(23.4627 5.06612e-012 0)
(38.8696 7.01113e-014 0)
(57.6576 5.59061e-012 0)
(77.8984 3.76286e-012 0)
(98.6165 -2.8538e-012 0)
(118.857 6.98817e-013 0)
(138.673 -6.75619e-013 0)
(157.543 -5.92842e-013 0)
(175.541 4.64984e-012 0)
(192.75 -1.0833e-012 0)
(208.766 -3.20756e-012 0)
(223.569 -4.28554e-012 0)
(237.081 -2.85492e-012 0)
(249.249 -2.70365e-012 0)
(259.801 -3.947e-012 0)
(268.925 -1.60936e-012 0)
(276.637 2.99133e-013 0)
(282.194 5.95347e-013 0)
(286.001 -2.34433e-012 0)
(288.97 -2.67869e-012 0)
(291.008 -3.53694e-012 0)
(292.075 1.33295e-011 0)
(292.596 -2.69383e-010 0)
(293.05 -6.84968e-010 0)
(293.564 -1.01216e-009 0)
(293.989 -2.41026e-009 0)
(294.131 -4.19404e-009 0)
(293.939 -7.32548e-009 0)
(293.5 -1.25383e-008 0)
(292.891 -2.77842e-008 0)
(292.246 -9.15054e-008 0)
(291.742 -3.05285e-007 0)
(291.523 -1.39224e-006 0)
(291.624 -1.33311e-005 0)
(291.909 -1.77752e-005 0)
(292.076 0.000738563 0)
(292.042 -0.0179214 0)
(291.93 -0.0717027 0)
(291.828 -0.0950375 0)
(291.741 -0.0838943 0)
(291.637 -0.124153 0)
(291.542 -0.193871 0)
(291.418 -0.284174 0)