/*--------------------------------*- C++ -*----------------------------------*\
| =========                 |                                                 |
| \\      /  F ield         | OpenFOAM: The Open Source CFD Toolbox           |
|  \\    /   O peration     | Version:  5.x                                   |
|   \\  /    A nd           | Web:      www.OpenFOAM.org                      |
|    \\/     M anipulation  |                                                 |
\*---------------------------------------------------------------------------*/
/*   Windows 32 and 64 bit porting by blueCAPE: http://www.bluecape.com.pt   *\
|  Based on Windows porting (2.0.x v4) by Symscape: http://www.symscape.com   |
\*---------------------------------------------------------------------------*/
FoamFile
{
    version     2.0;
    format      ascii;
    class       volVectorField;
    location    "0.005";
    object      U_0;
}
// * * * * * * * * * * * * * * * * * * * * * * * * * * * * * * * * * * * * * //

dimensions      [0 1 -1 0 0 0 0];

internalField   nonuniform List<vector> 
10000
(
(7.44596e-008 1.9432e-012 0)
(6.16271e-007 2.45717e-012 0)
(4.0219e-006 -1.95353e-012 0)
(2.55743e-005 -3.59069e-013 0)
(0.0001449 -2.26281e-012 0)
(0.000783433 -1.44869e-012 0)
(0.00379764 2.06902e-012 0)
(0.0172273 1.89756e-012 0)
(0.0701439 4.53107e-013 0)
(0.259641 -1.36402e-012 0)
(0.835059 1.02843e-013 0)
(2.35125 2.97128e-012 0)
(5.76737 1.04255e-012 0)
(12.418 1.92909e-012 0)
(23.4347 -2.19386e-012 0)
(38.8346 -3.53334e-012 0)
(57.6195 2.66876e-012 0)
(77.8609 9.35124e-012 0)
(98.5819 -6.70776e-012 0)
(118.825 -2.43832e-012 0)
(138.646 4.77649e-012 0)
(157.519 3.06015e-012 0)
(175.521 3.57153e-012 0)
(192.734 -3.34855e-012 0)
(208.753 -3.69472e-013 0)
(223.559 -6.18979e-013 0)
(237.074 2.33836e-012 0)
(249.244 2.64955e-012 0)
(259.798 1.02885e-012 0)
(268.924 8.7879e-013 0)
(276.638 2.09781e-012 0)
(282.193 2.93401e-013 0)
(286.002 -2.50204e-012 0)
(288.972 -4.5967e-013 0)
(291.01 -2.11849e-012 0)
(292.076 1.74828e-014 0)
(292.597 -1.38775e-011 0)
(293.051 -1.81064e-011 0)
(293.566 -2.18934e-011 0)
(293.991 -3.44038e-011 0)
(294.131 -5.2314e-011 0)
(293.938 -8.39711e-011 0)
(293.498 -1.3283e-010 0)
(292.888 -2.61663e-010 0)
(292.243 -6.45744e-010 0)
(291.739 -2.33933e-009 0)
(291.521 -3.38737e-008 0)
(291.625 -9.29452e-008 0)
(291.908 -2.97552e-007 0)
(292.103 -3.24028e-006 0)
(292.117 3.20302e-005 0)
(292.056 -0.00299108 0)
(291.99 -0.011098 0)
(291.922 -0.0201708 0)
(291.873 -0.0322328 0)
(291.895 -0.0505856 0)
(291.964 -0.0618897 0)
(291.675 -0.084885 0)
(291.201 -0.126113 0)
(287.438 -0.218138 0)
(7.44599e-008 -1.40797e-012 0)
(6.1627e-007 -3.97856e-012 0)
(4.0219e-006 6.63507e-014 0)
(2.55743e-005 5.96241e-013 0)
(0.0001449 -3.85968e-012 0)
(0.000783433 -3.8071e-014 0)
(0.00379764 -2.75754e-012 0)
(0.0172273 2.65832e-012 0)
(0.0701439 -4.27293e-012 0)
(0.259641 1.32706e-012 0)
(0.835059 1.10326e-012 0)
(2.35125 3.8856e-012 0)
(5.76737 4.32014e-012 0)
(12.418 2.17322e-012 0)
(23.4347 -1.31221e-012 0)
(38.8346 -1.03012e-012 0)
(57.6195 -3.65627e-012 0)
(77.8609 -3.08273e-013 0)
(98.5819 6.28201e-012 0)
(118.825 3.42224e-012 0)
(138.646 -1.32586e-012 0)
(157.519 -2.74241e-013 0)
(175.521 -2.31157e-013 0)
(192.734 4.22199e-013 0)
(208.753 -1.24965e-012 0)
(223.559 -1.45608e-012 0)
(237.074 -9.81252e-013 0)
(249.244 -1.42481e-012 0)
(259.798 -2.26469e-012 0)
(268.924 -1.26464e-012 0)
(276.638 -7.25204e-013 0)
(282.193 -1.98496e-012 0)
(286.002 -2.06915e-012 0)
(288.972 1.04153e-012 0)
(291.01 5.18099e-013 0)
(292.076 3.44721e-012 0)
(292.597 -3.8579e-011 0)
(293.051 -5.00911e-011 0)
(293.566 -6.04948e-011 0)
(293.991 -9.76071e-011 0)
(294.131 -1.52191e-010 0)
(293.938 -2.52496e-010 0)
(293.498 -4.00107e-010 0)
(292.888 -7.83188e-010 0)
(292.243 -1.94631e-009 0)
(291.739 -7.08319e-009 0)
(291.521 -1.02551e-007 0)
(291.625 -2.9113e-007 0)
(291.908 -9.32608e-007 0)
(292.103 -9.54097e-006 0)
(292.117 9.2206e-005 0)
(292.054 -0.00982094 0)
(291.988 -0.0345734 0)
(291.918 -0.0656224 0)
(291.868 -0.101276 0)
(291.89 -0.148052 0)
(291.958 -0.186393 0)
(291.663 -0.256802 0)
(291.175 -0.389789 0)
(287.419 -0.669563 0)
(7.44595e-008 -2.86946e-012 0)
(6.16271e-007 1.60177e-012 0)
(4.0219e-006 -1.9104e-013 0)
(2.55743e-005 4.88535e-012 0)
(0.0001449 -8.69064e-012 0)
(0.000783433 -1.62036e-012 0)
(0.00379764 4.22117e-013 0)
(0.0172273 2.38902e-012 0)
(0.0701439 -3.9953e-012 0)
(0.259641 2.60731e-012 0)
(0.835059 1.90616e-012 0)
(2.35125 6.43039e-012 0)
(5.76737 2.54316e-012 0)
(12.418 5.11351e-012 0)
(23.4347 1.89487e-013 0)
(38.8346 -3.56891e-012 0)
(57.6195 -9.55651e-013 0)
(77.8609 1.13893e-011 0)
(98.5819 -7.83199e-013 0)
(118.825 2.54564e-012 0)
(138.646 -6.31926e-015 0)
(157.519 3.00294e-013 0)
(175.521 3.31244e-012 0)
(192.734 5.58926e-013 0)
(208.753 -6.67595e-013 0)
(223.559 -1.15102e-012 0)
(237.074 1.59148e-012 0)
(249.244 1.16342e-013 0)
(259.798 -1.14823e-013 0)
(268.924 -1.27632e-012 0)
(276.638 4.39557e-012 0)
(282.193 3.01065e-012 0)
(286.002 -1.56016e-012 0)
(288.972 -1.7632e-012 0)
(291.01 -2.4081e-012 0)
(292.076 1.44509e-012 0)
(292.597 -6.79495e-011 0)
(293.051 -8.61535e-011 0)
(293.566 -1.03388e-010 0)
(293.991 -1.64494e-010 0)
(294.131 -2.6e-010 0)
(293.938 -4.2833e-010 0)
(293.498 -6.73806e-010 0)
(292.888 -1.31897e-009 0)
(292.243 -3.32853e-009 0)
(291.739 -1.21479e-008 0)
(291.521 -1.73708e-007 0)
(291.625 -5.19673e-007 0)
(291.908 -1.79754e-006 0)
(292.103 -1.66479e-005 0)
(292.116 0.000147079 0)
(292.051 -0.0195817 0)
(291.981 -0.0609815 0)
(291.911 -0.125066 0)
(291.859 -0.174548 0)
(291.88 -0.240542 0)
(291.945 -0.321044 0)
(291.638 -0.464575 0)
(291.123 -0.770748 0)
(287.382 -1.01713 0)
(7.44597e-008 -8.43641e-012 0)
(6.16271e-007 -2.76725e-012 0)
(4.0219e-006 -3.25402e-013 0)
(2.55743e-005 -7.73983e-013 0)
(0.0001449 -8.51723e-012 0)
(0.000783433 -1.46028e-012 0)
(0.00379764 -1.41243e-012 0)
(0.0172273 2.58694e-012 0)
(0.0701439 -5.8541e-012 0)
(0.259641 7.94124e-012 0)
(0.835059 2.45954e-012 0)
(2.35125 6.32053e-012 0)
(5.76737 4.20988e-012 0)
(12.418 2.9487e-012 0)
(23.4347 1.81517e-012 0)
(38.8346 1.93993e-012 0)
(57.6195 -2.87705e-012 0)
(77.8609 4.79181e-012 0)
(98.5819 8.53599e-012 0)
(118.825 1.60056e-012 0)
(138.646 -2.17909e-012 0)
(157.519 -2.03925e-013 0)
(175.521 1.65177e-012 0)
(192.734 -1.37993e-012 0)
(208.753 -2.0929e-012 0)
(223.559 -1.24092e-012 0)
(237.074 -1.99822e-012 0)
(249.244 2.5167e-012 0)
(259.798 -2.5013e-012 0)
(268.924 -2.48894e-012 0)
(276.638 5.35223e-013 0)
(282.193 -3.67458e-013 0)
(286.002 -1.88262e-012 0)
(288.972 -2.24592e-012 0)
(291.01 -1.47646e-012 0)
(292.076 3.20467e-012 0)
(292.597 -9.29518e-011 0)
(293.051 -1.19007e-010 0)
(293.566 -1.44268e-010 0)
(293.991 -2.34374e-010 0)
(294.131 -3.69453e-010 0)
(293.938 -6.08766e-010 0)
(293.498 -9.67259e-010 0)
(292.888 -1.90427e-009 0)
(292.243 -4.89741e-009 0)
(291.739 -1.78989e-008 0)
(291.521 -2.48381e-007 0)
(291.625 -7.57855e-007 0)
(291.908 -2.88564e-006 0)
(292.103 -2.53429e-005 0)
(292.114 0.000195559 0)
(292.045 -0.0334339 0)
(291.971 -0.0960955 0)
(291.9 -0.195032 0)
(291.849 -0.24136 0)
(291.865 -0.321131 0)
(291.919 -0.483148 0)
(291.583 -0.722865 0)
(291.074 -1.14372 0)
(287.365 -1.28046 0)
(7.44597e-008 -7.6341e-012 0)
(6.16271e-007 -2.46967e-012 0)
(4.0219e-006 6.46292e-013 0)
(2.55743e-005 2.87331e-012 0)
(0.0001449 -9.72978e-012 0)
(0.000783433 -7.72673e-012 0)
(0.00379764 -2.59795e-013 0)
(0.0172273 3.08127e-012 0)
(0.0701439 -3.43531e-012 0)
(0.259641 6.59698e-012 0)
(0.835059 -3.71471e-013 0)
(2.35125 9.03223e-012 0)
(5.76737 4.6512e-012 0)
(12.418 6.86904e-012 0)
(23.4347 6.80482e-012 0)
(38.8346 -4.47667e-012 0)
(57.6195 5.83955e-013 0)
(77.8609 6.78629e-012 0)
(98.5819 2.03513e-012 0)
(118.825 4.6697e-012 0)
(138.646 -3.28883e-012 0)
(157.519 -2.12839e-012 0)
(175.521 4.42697e-013 0)
(192.734 1.14915e-013 0)
(208.753 -1.57528e-012 0)
(223.559 -1.39075e-012 0)
(237.074 -4.32245e-013 0)
(249.244 1.45597e-012 0)
(259.798 -1.75512e-012 0)
(268.924 -5.65429e-013 0)
(276.638 8.51188e-013 0)
(282.193 2.42312e-012 0)
(286.002 -1.27418e-012 0)
(288.972 1.74576e-013 0)
(291.01 -2.76387e-012 0)
(292.076 3.60143e-012 0)
(292.597 -1.22266e-010 0)
(293.051 -1.54166e-010 0)
(293.566 -1.85724e-010 0)
(293.991 -3.09063e-010 0)
(294.131 -4.81502e-010 0)
(293.938 -8.02338e-010 0)
(293.498 -1.29587e-009 0)
(292.888 -2.56314e-009 0)
(292.243 -6.71899e-009 0)
(291.739 -2.46127e-008 0)
(291.521 -3.28494e-007 0)
(291.625 -9.63735e-007 0)
(291.908 -2.10441e-006 0)
(292.103 -4.31676e-006 0)
(292.111 -0.0021912 0)
(292.036 -0.0432487 0)
(291.957 -0.137277 0)
(291.889 -0.253342 0)
(291.839 -0.308099 0)
(291.84 -0.385066 0)
(291.878 -0.643074 0)
(291.523 -0.956962 0)
(291.025 -1.36921 0)
(287.34 -1.53877 0)
(7.44599e-008 -8.30367e-012 0)
(6.16271e-007 -5.1116e-012 0)
(4.0219e-006 3.36244e-012 0)
(2.55743e-005 -1.69112e-012 0)
(0.0001449 -8.76487e-012 0)
(0.000783433 -7.67128e-012 0)
(0.00379764 -5.32489e-013 0)
(0.0172273 3.77985e-012 0)
(0.0701439 -4.03832e-012 0)
(0.259641 7.91957e-012 0)
(0.835059 5.80438e-013 0)
(2.35125 1.02318e-011 0)
(5.76737 5.3297e-012 0)
(12.418 4.72195e-012 0)
(23.4347 5.19046e-012 0)
(38.8346 -1.37809e-012 0)
(57.6195 6.67674e-013 0)
(77.8609 5.49944e-012 0)
(98.5819 1.03226e-012 0)
(118.825 4.43385e-012 0)
(138.646 -1.17901e-012 0)
(157.519 -3.67707e-012 0)
(175.521 3.16196e-014 0)
(192.734 1.92821e-012 0)
(208.753 2.31581e-013 0)
(223.559 -1.08802e-012 0)
(237.074 3.00078e-012 0)
(249.244 5.43528e-013 0)
(259.798 -4.20753e-012 0)
(268.924 -4.25822e-012 0)
(276.638 -2.63696e-012 0)
(282.193 -2.08361e-012 0)
(286.002 -4.33014e-012 0)
(288.972 -2.74368e-012 0)
(291.01 -1.09701e-012 0)
(292.076 5.90291e-012 0)
(292.597 -1.51391e-010 0)
(293.051 -1.8526e-010 0)
(293.566 -2.24933e-010 0)
(293.991 -3.84445e-010 0)
(294.131 -6.01866e-010 0)
(293.938 -1.01629e-009 0)
(293.498 -1.66025e-009 0)
(292.888 -3.29709e-009 0)
(292.243 -8.89019e-009 0)
(291.739 -3.24953e-008 0)
(291.521 -4.11767e-007 0)
(291.625 -1.29656e-006 0)
(291.908 4.67383e-006 0)
(292.103 0.000108859 0)
(292.108 -0.00937438 0)
(292.026 -0.0467122 0)
(291.94 -0.169833 0)
(291.875 -0.294853 0)
(291.828 -0.355844 0)
(291.811 -0.482609 0)
(291.827 -0.786488 0)
(291.461 -1.16363 0)
(290.974 -1.4155 0)
(287.308 -1.68125 0)
(7.44598e-008 -3.72231e-012 0)
(6.16271e-007 -3.63786e-012 0)
(4.0219e-006 1.48676e-012 0)
(2.55743e-005 2.31175e-012 0)
(0.0001449 -1.15107e-011 0)
(0.000783433 -1.13954e-011 0)
(0.00379764 -3.09041e-012 0)
(0.0172273 4.35869e-012 0)
(0.0701439 -4.43815e-012 0)
(0.259641 8.9849e-012 0)
(0.835059 -7.35243e-014 0)
(2.35125 1.39322e-011 0)
(5.76737 4.34857e-012 0)
(12.418 6.26744e-012 0)
(23.4347 6.45929e-012 0)
(38.8346 -6.54092e-014 0)
(57.6195 -2.08888e-012 0)
(77.8609 5.90892e-012 0)
(98.5819 2.29481e-012 0)
(118.825 4.24645e-012 0)
(138.646 -1.67972e-012 0)
(157.519 1.37036e-012 0)
(175.521 1.16875e-012 0)
(192.734 1.16909e-013 0)
(208.753 -1.20506e-013 0)
(223.559 8.81791e-013 0)
(237.074 -1.144e-013 0)
(249.244 6.76889e-013 0)
(259.798 -2.91607e-012 0)
(268.924 -9.31943e-013 0)
(276.638 -4.47618e-013 0)
(282.193 1.36278e-012 0)
(286.002 -5.62458e-013 0)
(288.972 -1.89484e-012 0)
(291.01 -2.48822e-012 0)
(292.076 5.27213e-012 0)
(292.597 -1.81511e-010 0)
(293.051 -2.19113e-010 0)
(293.566 -2.68677e-010 0)
(293.991 -4.70887e-010 0)
(294.131 -7.39909e-010 0)
(293.938 -1.2485e-009 0)
(293.498 -2.04398e-009 0)
(292.888 -4.10867e-009 0)
(292.243 -1.1769e-008 0)
(291.739 -4.21039e-008 0)
(291.521 -4.71011e-007 0)
(291.625 -2.46522e-006 0)
(291.908 1.87476e-005 0)
(292.102 0.000350868 0)
(292.105 -0.0187981 0)
(292.014 -0.0531311 0)
(291.922 -0.188713 0)
(291.861 -0.324804 0)
(291.811 -0.424813 0)
(291.774 -0.650208 0)
(291.771 -0.848367 0)
(291.42 -1.14945 0)
(290.937 -1.35946 0)
(287.255 -1.73729 0)
(7.44599e-008 2.77472e-013 0)
(6.16271e-007 -2.46506e-012 0)
(4.0219e-006 3.67546e-012 0)
(2.55743e-005 2.76892e-013 0)
(0.0001449 -1.01683e-011 0)
(0.000783433 -1.07613e-011 0)
(0.00379764 -1.79843e-012 0)
(0.0172273 3.32276e-012 0)
(0.0701439 -5.30335e-012 0)
(0.259641 5.35736e-012 0)
(0.835059 -1.50048e-012 0)
(2.35125 1.01069e-011 0)
(5.76737 5.79666e-012 0)
(12.418 4.84737e-012 0)
(23.4347 5.20406e-012 0)
(38.8346 -9.14125e-013 0)
(57.6195 1.81788e-012 0)
(77.8609 4.05122e-012 0)
(98.5819 2.09214e-013 0)
(118.825 6.96415e-013 0)
(138.646 1.27157e-012 0)
(157.519 -1.80752e-012 0)
(175.521 4.56305e-012 0)
(192.734 1.20243e-012 0)
(208.753 -1.38191e-012 0)
(223.559 1.27461e-012 0)
(237.074 -3.14307e-012 0)
(249.244 1.65504e-015 0)
(259.798 -5.03264e-012 0)
(268.924 -4.64615e-012 0)
(276.638 3.32074e-013 0)
(282.193 -1.47733e-012 0)
(286.002 -4.63984e-012 0)
(288.972 -9.44095e-013 0)
(291.01 -3.59267e-012 0)
(292.076 7.23545e-012 0)
(292.597 -2.04185e-010 0)
(293.051 -2.48642e-010 0)
(293.566 -3.07436e-010 0)
(293.991 -5.62094e-010 0)
(294.131 -8.87356e-010 0)
(293.938 -1.49198e-009 0)
(293.498 -2.45217e-009 0)
(292.888 -5.07157e-009 0)
(292.243 -1.59045e-008 0)
(291.739 -5.44635e-008 0)
(291.521 -4.36963e-007 0)
(291.625 -6.56447e-006 0)
(291.908 3.83736e-005 0)
(292.1 0.000864601 0)
(292.101 -0.0370696 0)
(292.003 -0.0820386 0)
(291.903 -0.214207 0)
(291.842 -0.339571 0)
(291.781 -0.46094 0)
(291.748 -0.679483 0)
(291.75 -0.810269 0)
(291.379 -1.0009 0)
(290.878 -1.40727 0)
(287.194 -1.83076 0)
(7.44597e-008 4.31331e-012 0)
(6.16271e-007 -1.5337e-012 0)
(4.0219e-006 4.05539e-012 0)
(2.55743e-005 3.4066e-012 0)
(0.0001449 -1.19094e-011 0)
(0.000783433 -1.01478e-011 0)
(0.00379764 -2.19729e-012 0)
(0.0172273 6.63562e-012 0)
(0.0701439 -3.7158e-012 0)
(0.259641 7.20589e-012 0)
(0.835059 -1.39568e-012 0)
(2.35125 1.21797e-011 0)
(5.76737 8.127e-012 0)
(12.418 5.24358e-012 0)
(23.4347 5.00907e-012 0)
(38.8346 2.69539e-013 0)
(57.6195 7.71873e-013 0)
(77.8609 3.6989e-012 0)
(98.5819 -1.31315e-012 0)
(118.825 2.95888e-012 0)
(138.646 -4.75661e-012 0)
(157.519 3.5798e-014 0)
(175.521 2.73043e-012 0)
(192.734 7.29928e-013 0)
(208.753 5.6815e-013 0)
(223.559 1.473e-013 0)
(237.074 -5.93786e-013 0)
(249.244 -6.69182e-013 0)
(259.798 -2.55431e-012 0)
(268.924 -1.01679e-012 0)
(276.638 1.74652e-012 0)
(282.193 9.75333e-013 0)
(286.002 -7.6692e-013 0)
(288.972 -2.38501e-012 0)
(291.01 -3.3179e-012 0)
(292.076 7.71754e-012 0)
(292.597 -2.27923e-010 0)
(293.051 -2.81547e-010 0)
(293.566 -3.49845e-010 0)
(293.991 -6.57938e-010 0)
(294.131 -1.03524e-009 0)
(293.938 -1.74585e-009 0)
(293.498 -2.91229e-009 0)
(292.888 -6.27327e-009 0)
(292.243 -2.14364e-008 0)
(291.739 -7.05449e-008 0)
(291.521 -2.76597e-007 0)
(291.625 -1.38031e-005 0)
(291.908 4.2119e-005 0)
(292.097 0.00145089 0)
(292.095 -0.0585861 0)
(291.991 -0.115241 0)
(291.888 -0.218187 0)
(291.828 -0.333505 0)
(291.762 -0.420351 0)
(291.724 -0.576369 0)
(291.724 -0.765849 0)
(291.328 -0.966958 0)
(290.807 -1.4919 0)
(287.133 -2.0161 0)
(7.44597e-008 4.63866e-012 0)
(6.16271e-007 -5.90693e-013 0)
(4.0219e-006 8.55807e-012 0)
(2.55743e-005 2.33154e-012 0)
(0.0001449 -1.08777e-011 0)
(0.000783433 -8.5946e-012 0)
(0.00379764 -9.41274e-013 0)
(0.0172273 8.542e-012 0)
(0.0701439 -2.8048e-012 0)
(0.259641 4.62169e-012 0)
(0.835059 -4.20976e-012 0)
(2.35125 1.13453e-011 0)
(5.76737 5.97486e-012 0)
(12.418 2.98385e-012 0)
(23.4347 5.62124e-012 0)
(38.8346 1.15834e-012 0)
(57.6195 -2.83996e-013 0)
(77.8609 8.53659e-012 0)
(98.5819 6.72135e-013 0)
(118.825 1.74872e-012 0)
(138.646 -2.24961e-012 0)
(157.519 -1.07057e-012 0)
(175.521 3.79048e-012 0)
(192.734 -2.46884e-012 0)
(208.753 -3.16024e-012 0)
(223.559 -2.08412e-012 0)
(237.074 -2.57377e-012 0)
(249.244 -4.21247e-012 0)
(259.798 -4.02119e-012 0)
(268.924 -4.40334e-012 0)
(276.638 -4.16309e-013 0)
(282.193 3.40491e-013 0)
(286.002 -3.33943e-012 0)
(288.972 -4.06565e-012 0)
(291.01 -3.66765e-012 0)
(292.076 1.07728e-011 0)
(292.597 -2.48634e-010 0)
(293.051 -3.11285e-010 0)
(293.566 -3.90397e-010 0)
(293.991 -7.52095e-010 0)
(294.131 -1.18961e-009 0)
(293.938 -2.02932e-009 0)
(293.498 -3.44652e-009 0)
(292.888 -7.6907e-009 0)
(292.243 -2.80172e-008 0)
(291.739 -9.07338e-008 0)
(291.521 -8.6371e-008 0)
(291.625 -2.02386e-005 0)
(291.908 2.15207e-005 0)
(292.093 0.00168025 0)
(292.087 -0.0643529 0)
(291.983 -0.120718 0)
(291.875 -0.198573 0)
(291.815 -0.297376 0)
(291.748 -0.377578 0)
(291.7 -0.512201 0)
(291.695 -0.756617 0)
(291.272 -1.02171 0)
(290.72 -1.55768 0)
(287.06 -2.10837 0)
(7.44596e-008 8.14095e-012 0)
(6.16272e-007 -3.86998e-012 0)
(4.0219e-006 1.06059e-011 0)
(2.55743e-005 5.06485e-012 0)
(0.0001449 -1.12051e-011 0)
(0.000783433 -5.43363e-012 0)
(0.00379764 -1.36134e-012 0)
(0.0172273 1.01583e-011 0)
(0.0701439 4.20583e-013 0)
(0.259641 4.93818e-012 0)
(0.835059 3.42657e-013 0)
(2.35125 1.39525e-011 0)
(5.76737 4.70754e-012 0)
(12.418 1.86623e-012 0)
(23.4347 6.11867e-012 0)
(38.8346 -1.07205e-012 0)
(57.6195 -7.63146e-013 0)
(77.8609 4.30974e-012 0)
(98.5819 1.46337e-012 0)
(118.825 1.4282e-012 0)
(138.646 -3.53534e-012 0)
(157.519 -2.25732e-012 0)
(175.521 3.96789e-012 0)
(192.734 -1.68366e-012 0)
(208.753 -2.44908e-012 0)
(223.559 -8.18426e-013 0)
(237.074 -1.45312e-012 0)
(249.244 -4.463e-012 0)
(259.798 -2.12446e-012 0)
(268.924 -3.2667e-012 0)
(276.638 6.78734e-013 0)
(282.193 2.00872e-012 0)
(286.002 -2.06348e-012 0)
(288.972 -2.5348e-012 0)
(291.01 -2.51143e-012 0)
(292.076 1.24901e-011 0)
(292.597 -2.66177e-010 0)
(293.051 -3.38579e-010 0)
(293.566 -4.29997e-010 0)
(293.991 -8.51368e-010 0)
(294.131 -1.36294e-009 0)
(293.938 -2.34793e-009 0)
(293.498 -4.04114e-009 0)
(292.888 -9.2637e-009 0)
(292.243 -3.544e-008 0)
(291.739 -1.14829e-007 0)
(291.521 3.43822e-009 0)
(291.625 -2.23702e-005 0)
(291.908 7.40793e-006 0)
(292.09 0.00161976 0)
(292.08 -0.0558194 0)
(291.975 -0.106226 0)
(291.865 -0.188287 0)
(291.805 -0.254846 0)
(291.734 -0.354483 0)
(291.673 -0.487051 0)
(291.654 -0.800432 0)
(291.214 -1.12917 0)
(290.649 -1.55984 0)
(286.989 -2.04581 0)
(7.44593e-008 6.39328e-012 0)
(6.16271e-007 -8.61268e-013 0)
(4.0219e-006 1.35457e-011 0)
(2.55743e-005 7.65039e-012 0)
(0.0001449 -9.51803e-012 0)
(0.000783433 -3.70765e-012 0)
(0.00379764 -1.68131e-013 0)
(0.0172273 7.7813e-012 0)
(0.0701439 -6.97589e-013 0)
(0.259641 4.55879e-013 0)
(0.835059 -2.93514e-012 0)
(2.35125 7.48123e-012 0)
(5.76737 5.5963e-012 0)
(12.418 3.22216e-012 0)
(23.4347 2.41931e-012 0)
(38.8346 5.54069e-013 0)
(57.6195 4.5871e-012 0)
(77.8609 7.56859e-012 0)
(98.5819 -5.24183e-012 0)
(118.825 -5.94467e-014 0)
(138.646 -5.19852e-012 0)
(157.519 -7.66405e-013 0)
(175.521 5.04043e-012 0)
(192.734 -1.49093e-012 0)
(208.753 -3.51797e-012 0)
(223.559 -4.07083e-012 0)
(237.074 -3.44078e-012 0)
(249.244 -3.38917e-012 0)
(259.798 -5.57849e-012 0)
(268.924 -5.52547e-012 0)
(276.638 -1.42113e-013 0)
(282.193 -1.97289e-012 0)
(286.002 -3.91948e-012 0)
(288.972 -4.20178e-012 0)
(291.01 -4.97745e-012 0)
(292.076 1.27176e-011 0)
(292.597 -2.80994e-010 0)
(293.051 -3.67444e-010 0)
(293.566 -4.74312e-010 0)
(293.991 -9.63845e-010 0)
(294.131 -1.56099e-009 0)
(293.938 -2.70169e-009 0)
(293.498 -4.68853e-009 0)
(292.888 -1.09915e-008 0)
(292.243 -4.33459e-008 0)
(291.739 -1.41464e-007 0)
(291.521 -1.70318e-008 0)
(291.625 -2.12285e-005 0)
(291.908 1.17941e-005 0)
(292.087 0.00156246 0)
(292.075 -0.0460285 0)
(291.967 -0.0897191 0)
(291.857 -0.168475 0)
(291.794 -0.226643 0)
(291.718 -0.374553 0)
(291.642 -0.553558 0)
(291.609 -0.789173 0)
(291.167 -1.13254 0)
(290.591 -1.4811 0)
(286.909 -2.01737 0)
(7.44594e-008 8.20452e-012 0)
(6.16272e-007 -3.05295e-012 0)
(4.0219e-006 1.70118e-011 0)
(2.55743e-005 6.55489e-012 0)
(0.0001449 -9.3538e-012 0)
(0.000783433 -5.8725e-013 0)
(0.00379764 -3.26002e-012 0)
(0.0172273 8.35559e-012 0)
(0.0701439 -9.74661e-013 0)
(0.259641 7.87307e-013 0)
(0.835059 -1.59528e-012 0)
(2.35125 9.50764e-012 0)
(5.76737 4.64208e-012 0)
(12.418 3.08104e-012 0)
(23.4347 4.5281e-012 0)
(38.8346 2.06015e-012 0)
(57.6195 1.69861e-012 0)
(77.8609 4.26136e-012 0)
(98.5819 1.56707e-012 0)
(118.825 2.3195e-013 0)
(138.646 -5.22969e-012 0)
(157.519 -3.74967e-013 0)
(175.521 4.89106e-012 0)
(192.734 -3.91251e-012 0)
(208.753 -3.9167e-012 0)
(223.559 -2.37504e-012 0)
(237.074 -5.9591e-012 0)
(249.244 -6.73461e-013 0)
(259.798 -4.62248e-012 0)
(268.924 -2.24227e-012 0)
(276.638 1.09874e-012 0)
(282.193 -5.77469e-013 0)
(286.002 -3.67727e-012 0)
(288.972 -1.45963e-012 0)
(291.01 -2.98537e-012 0)
(292.076 1.54333e-011 0)
(292.597 -2.90146e-010 0)
(293.051 -3.94199e-010 0)
(293.566 -5.18466e-010 0)
(293.991 -1.08772e-009 0)
(294.131 -1.7891e-009 0)
(293.938 -3.11849e-009 0)
(293.498 -5.431e-009 0)
(292.888 -1.28788e-008 0)
(292.243 -5.09781e-008 0)
(291.739 -1.67929e-007 0)
(291.521 -9.0334e-008 0)
(291.625 -1.97049e-005 0)
(291.908 2.06658e-005 0)
(292.085 0.00162249 0)
(292.07 -0.0419248 0)
(291.961 -0.0830845 0)
(291.849 -0.149918 0)
(291.78 -0.216986 0)
(291.694 -0.408783 0)
(291.62 -0.565169 0)
(291.579 -0.70817 0)
(291.121 -1.05331 0)
(290.527 -1.40928 0)
(286.816 -2.03491 0)
(7.44591e-008 4.75818e-012 0)
(6.16271e-007 1.31234e-012 0)
(4.0219e-006 1.59268e-011 0)
(2.55743e-005 9.80815e-012 0)
(0.0001449 -1.00393e-011 0)
(0.000783433 -7.25171e-013 0)
(0.00379764 -3.23568e-012 0)
(0.0172273 7.89935e-012 0)
(0.0701439 -4.33854e-012 0)
(0.259641 8.24232e-013 0)
(0.835059 -4.69541e-012 0)
(2.35125 6.57372e-012 0)
(5.76737 6.64259e-012 0)
(12.418 3.18612e-012 0)
(23.4347 2.98535e-012 0)
(38.8346 -8.60314e-013 0)
(57.6195 4.18402e-012 0)
(77.8609 4.99959e-012 0)
(98.5819 -2.80568e-012 0)
(118.825 9.2302e-013 0)
(138.646 -5.1713e-012 0)
(157.519 8.34782e-013 0)
(175.521 4.36739e-012 0)
(192.734 -1.08264e-012 0)
(208.753 -1.19374e-012 0)
(223.559 -2.5284e-012 0)
(237.074 -2.74972e-012 0)
(249.244 -4.68282e-012 0)
(259.798 -5.52919e-012 0)
(268.924 -2.76115e-012 0)
(276.638 -1.12118e-012 0)
(282.193 -7.37343e-013 0)
(286.002 -5.3426e-012 0)
(288.972 -4.01844e-012 0)
(291.01 -5.20767e-012 0)
(292.076 1.51134e-011 0)
(292.597 -2.96046e-010 0)
(293.051 -4.24182e-010 0)
(293.566 -5.68742e-010 0)
(293.991 -1.23225e-009 0)
(294.131 -2.05666e-009 0)
(293.938 -3.60995e-009 0)
(293.498 -6.29398e-009 0)
(292.888 -1.49027e-008 0)
(292.243 -5.78386e-008 0)
(291.739 -1.91824e-007 0)
(291.521 -1.90866e-007 0)
(291.625 -1.92613e-005 0)
(291.908 1.4536e-005 0)
(292.083 0.0016761 0)
(292.066 -0.041445 0)
(291.955 -0.0889689 0)
(291.842 -0.149118 0)
(291.764 -0.210181 0)
(291.677 -0.36618 0)
(291.605 -0.464231 0)
(291.548 -0.655496 0)
(291.076 -1.00437 0)
(290.46 -1.36887 0)
(286.717 -2.0174 0)
(7.44593e-008 4.95451e-012 0)
(6.16272e-007 -6.11614e-013 0)
(4.0219e-006 1.97489e-011 0)
(2.55743e-005 1.00995e-011 0)
(0.0001449 -8.94351e-012 0)
(0.000783433 1.70797e-012 0)
(0.00379764 -2.61254e-012 0)
(0.0172273 7.20383e-012 0)
(0.0701439 -2.19479e-012 0)
(0.259641 4.37532e-013 0)
(0.835059 -4.5555e-012 0)
(2.35125 9.12465e-012 0)
(5.76737 6.92722e-012 0)
(12.418 3.97377e-012 0)
(23.4347 4.92105e-012 0)
(38.8346 -1.96424e-012 0)
(57.6195 4.2363e-012 0)
(77.8609 1.76213e-012 0)
(98.5819 2.29786e-012 0)
(118.825 2.85058e-012 0)
(138.646 -3.63623e-012 0)
(157.519 -1.18336e-013 0)
(175.521 4.52482e-012 0)
(192.734 -1.60548e-012 0)
(208.753 -4.97685e-012 0)
(223.559 -3.6457e-012 0)
(237.074 -3.89423e-012 0)
(249.244 -2.098e-012 0)
(259.798 -3.70487e-012 0)
(268.924 -3.18577e-012 0)
(276.638 -2.48232e-013 0)
(282.193 -2.0099e-012 0)
(286.002 -1.60489e-012 0)
(288.972 -4.15549e-012 0)
(291.01 -4.91504e-012 0)
(292.076 1.58669e-011 0)
(292.597 -2.9598e-010 0)
(293.051 -4.5747e-010 0)
(293.566 -6.25465e-010 0)
(293.991 -1.40068e-009 0)
(294.131 -2.36962e-009 0)
(293.938 -4.17526e-009 0)
(293.498 -7.27753e-009 0)
(292.888 -1.7046e-008 0)
(292.243 -6.39026e-008 0)
(291.739 -2.12856e-007 0)
(291.521 -3.38501e-007 0)
(291.625 -1.94933e-005 0)
(291.908 -3.57812e-006 0)
(292.081 0.00162261 0)
(292.061 -0.039904 0)
(291.95 -0.102955 0)
(291.836 -0.154887 0)
(291.755 -0.192725 0)
(291.665 -0.293985 0)
(291.585 -0.385674 0)
(291.513 -0.587121 0)
(291.032 -0.943006 0)
(290.397 -1.35332 0)
(286.622 -1.96478 0)
(7.44589e-008 2.20093e-012 0)
(6.16272e-007 1.64627e-012 0)
(4.0219e-006 1.95e-011 0)
(2.55743e-005 1.25494e-011 0)
(0.0001449 -9.05567e-012 0)
(0.000783433 1.06151e-013 0)
(0.00379764 -1.93645e-012 0)
(0.0172273 4.57227e-012 0)
(0.0701439 -3.68794e-012 0)
(0.259641 5.10734e-013 0)
(0.835059 -4.48546e-012 0)
(2.35125 6.26301e-012 0)
(5.76737 8.03229e-012 0)
(12.418 5.2306e-012 0)
(23.4347 3.86719e-012 0)
(38.8346 -2.21728e-012 0)
(57.6195 2.94492e-012 0)
(77.8609 7.50723e-012 0)
(98.5819 -2.32593e-012 0)
(118.825 1.2327e-012 0)
(138.646 -4.85056e-012 0)
(157.519 4.17017e-013 0)
(175.521 3.10014e-012 0)
(192.734 -1.97118e-012 0)
(208.753 -3.94776e-012 0)
(223.559 -3.09598e-012 0)
(237.074 -4.49043e-012 0)
(249.244 -1.86308e-012 0)
(259.798 -5.44801e-012 0)
(268.924 -2.96838e-012 0)
(276.638 -1.62388e-012 0)
(282.193 -1.37331e-012 0)
(286.002 -3.97005e-012 0)
(288.972 -2.23078e-012 0)
(291.01 -6.11928e-012 0)
(292.076 1.33463e-011 0)
(292.597 -2.93429e-010 0)
(293.051 -4.9694e-010 0)
(293.566 -6.94833e-010 0)
(293.991 -1.59562e-009 0)
(294.131 -2.73143e-009 0)
(293.938 -4.81617e-009 0)
(293.498 -8.37343e-009 0)
(292.888 -1.93037e-008 0)
(292.243 -6.96437e-008 0)
(291.739 -2.32735e-007 0)
(291.521 -5.54481e-007 0)
(291.625 -1.90914e-005 0)
(291.908 -1.59274e-005 0)
(292.079 0.00150764 0)
(292.056 -0.0366574 0)
(291.944 -0.113005 0)
(291.832 -0.151264 0)
(291.748 -0.173166 0)
(291.655 -0.253555 0)
(291.571 -0.334096 0)
(291.482 -0.487581 0)
(290.984 -0.816782 0)
(290.333 -1.29879 0)
(286.525 -1.90297 0)
(7.44592e-008 4.87547e-012 0)
(6.16272e-007 -1.77172e-012 0)
(4.0219e-006 2.28663e-011 0)
(2.55743e-005 1.08742e-011 0)
(0.0001449 -8.00478e-012 0)
(0.000783433 3.24482e-012 0)
(0.00379764 -3.83601e-012 0)
(0.0172273 5.13564e-012 0)
(0.0701439 -1.73363e-012 0)
(0.259641 -1.57117e-013 0)
(0.835059 -4.32537e-012 0)
(2.35125 1.00501e-011 0)
(5.76737 8.10572e-012 0)
(12.418 2.44485e-012 0)
(23.4347 3.94729e-012 0)
(38.8346 -2.43592e-012 0)
(57.6195 6.4236e-012 0)
(77.8609 1.89573e-012 0)
(98.5819 1.63595e-012 0)
(118.825 2.0819e-012 0)
(138.646 -1.4418e-012 0)
(157.519 5.16602e-013 0)
(175.521 3.82722e-012 0)
(192.734 -3.90619e-012 0)
(208.753 -4.87894e-012 0)
(223.559 -4.54197e-012 0)
(237.074 -5.97027e-012 0)
(249.244 -1.30716e-012 0)
(259.798 -3.01177e-012 0)
(268.924 -1.23338e-012 0)
(276.638 2.28861e-012 0)
(282.193 -2.35993e-012 0)
(286.002 -8.90413e-013 0)
(288.972 -3.64607e-012 0)
(291.01 -5.07746e-012 0)
(292.076 1.38348e-011 0)
(292.597 -2.87057e-010 0)
(293.051 -5.43403e-010 0)
(293.566 -7.77841e-010 0)
(293.991 -1.81916e-009 0)
(294.131 -3.14368e-009 0)
(293.938 -5.53733e-009 0)
(293.498 -9.58364e-009 0)
(292.888 -2.16924e-008 0)
(292.243 -7.56508e-008 0)
(291.739 -2.53701e-007 0)
(291.521 -8.26152e-007 0)
(291.625 -1.76245e-005 0)
(291.908 -1.94079e-005 0)
(292.077 0.00135605 0)
(292.05 -0.0328975 0)
(291.938 -0.111183 0)
(291.83 -0.141818 0)
(291.744 -0.152367 0)
(291.647 -0.207275 0)
(291.559 -0.275059 0)
(291.458 -0.39417 0)
(290.937 -0.68647 0)
(290.268 -1.1962 0)
(286.427 -1.84326 0)
(7.44588e-008 5.34019e-012 0)
(6.16272e-007 2.36831e-012 0)
(4.0219e-006 2.21377e-011 0)
(2.55743e-005 1.18489e-011 0)
(0.0001449 -7.26727e-012 0)
(0.000783433 2.56937e-012 0)
(0.00379764 -3.41317e-012 0)
(0.0172273 2.8009e-012 0)
(0.0701439 -1.53356e-012 0)
(0.259641 -1.45366e-013 0)
(0.835059 -2.7863e-012 0)
(2.35125 7.42668e-012 0)
(5.76737 8.99178e-012 0)
(12.418 2.07616e-012 0)
(23.4347 3.21633e-012 0)
(38.8346 -5.91766e-013 0)
(57.6195 7.13725e-012 0)
(77.8609 3.16822e-012 0)
(98.5819 -4.3646e-012 0)
(118.825 2.65752e-012 0)
(138.646 -1.34302e-012 0)
(157.519 2.62978e-012 0)
(175.521 4.98969e-012 0)
(192.734 -2.33959e-012 0)
(208.753 -3.32189e-012 0)
(223.559 -4.37045e-012 0)
(237.074 -7.02244e-012 0)
(249.244 -4.41062e-012 0)
(259.798 -6.01696e-012 0)
(268.924 -2.61742e-012 0)
(276.638 -3.07414e-013 0)
(282.193 -1.17061e-012 0)
(286.002 -2.89881e-012 0)
(288.972 -3.02978e-012 0)
(291.01 -5.77988e-012 0)
(292.076 1.24806e-011 0)
(292.597 -2.80576e-010 0)
(293.051 -6.0046e-010 0)
(293.566 -8.74903e-010 0)
(293.991 -2.0743e-009 0)
(294.131 -3.60461e-009 0)
(293.938 -6.33279e-009 0)
(293.498 -1.09002e-008 0)
(292.888 -2.42315e-008 0)
(292.243 -8.2375e-008 0)
(291.739 -2.77227e-007 0)
(291.521 -1.12114e-006 0)
(291.625 -1.53729e-005 0)
(291.908 -1.90222e-005 0)
(292.076 0.00111455 0)
(292.045 -0.0269225 0)
(291.933 -0.096053 0)
(291.828 -0.125372 0)
(291.741 -0.123064 0)
(291.642 -0.165797 0)
(291.55 -0.226966 0)
(291.436 -0.324485 0)
(290.893 -0.587974 0)
(290.201 -1.10108 0)
(286.328 -1.7934 0)
(7.44592e-008 6.3835e-012 0)
(6.16273e-007 -1.13804e-012 0)
(4.0219e-006 2.68985e-011 0)
(2.55743e-005 1.03015e-011 0)
(0.0001449 -6.18999e-012 0)
(0.000783433 5.19657e-012 0)
(0.00379764 -5.72853e-012 0)
(0.0172273 3.60798e-012 0)
(0.0701439 -1.53256e-012 0)
(0.259641 -1.78892e-012 0)
(0.835059 -2.74876e-012 0)
(2.35125 9.59071e-012 0)
(5.76737 8.71031e-012 0)
(12.418 1.78496e-012 0)
(23.4347 5.06714e-012 0)
(38.8346 8.36135e-014 0)
(57.6195 5.54335e-012 0)
(77.8609 3.7233e-012 0)
(98.5819 -2.82681e-012 0)
(118.825 7.17718e-013 0)
(138.646 -6.46518e-013 0)
(157.519 -6.17679e-013 0)
(175.521 4.68138e-012 0)
(192.734 -1.12282e-012 0)
(208.753 -3.26202e-012 0)
(223.559 -4.32502e-012 0)
(237.074 -2.89227e-012 0)
(249.244 -2.69183e-012 0)
(259.798 -3.9624e-012 0)
(268.924 -1.61426e-012 0)
(276.638 3.39208e-013 0)
(282.193 5.1416e-013 0)
(286.002 -2.37153e-012 0)
(288.972 -2.68272e-012 0)
(291.01 -3.46302e-012 0)
(292.076 1.32931e-011 0)
(292.597 -2.6845e-010 0)
(293.051 -6.62102e-010 0)
(293.566 -9.82783e-010 0)
(293.991 -2.3585e-009 0)
(294.131 -4.11193e-009 0)
(293.938 -7.18956e-009 0)
(293.498 -1.22993e-008 0)
(292.888 -2.69127e-008 0)
(292.243 -8.99626e-008 0)
(291.739 -3.03416e-007 0)
(291.521 -1.40227e-006 0)
(291.625 -1.27996e-005 0)
(291.908 -2.19943e-005 0)
(292.075 0.000739917 0)
(292.041 -0.0179686 0)
(291.929 -0.0721362 0)
(291.827 -0.0955457 0)
(291.74 -0.0843656 0)
(291.636 -0.124612 0)
(291.542 -0.19358 0)
(291.419 -0.284435 0)