/*--------------------------------*- C++ -*----------------------------------*\
| =========                 |                                                 |
| \\      /  F ield         | OpenFOAM: The Open Source CFD Toolbox           |
|  \\    /   O peration     | Version:  5.x                                   |
|   \\  /    A nd           | Web:      www.OpenFOAM.org                      |
|    \\/     M anipulation  |                                                 |
\*---------------------------------------------------------------------------*/
/*   Windows 32 and 64 bit porting by blueCAPE: http://www.bluecape.com.pt   *\
|  Based on Windows porting (2.0.x v4) by Symscape: http://www.symscape.com   |
\*---------------------------------------------------------------------------*/
FoamFile
{
    version     2.0;
    format      ascii;
    class       volScalarField;
    location    "0.008";
    object      mag(U);
}
// * * * * * * * * * * * * * * * * * * * * * * * * * * * * * * * * * * * * * //

dimensions      [0 1 -1 0 0 0 0];

internalField   nonuniform List<scalar> 
100
(
19.9367
73.3284
158.389
224.346
260.771
279.478
19.9366
73.3296
158.385
224.413
260.881
279.41
19.9364
73.3309
158.38
224.487
261.008
279.558
19.9362
73.3319
158.376
224.553
261.126
280.12
19.9361
73.3327
158.373
224.611
261.225
281.176
19.9359
73.3344
158.366
224.718
261.38
287.913
19.9352
73.3392
158.342
224.919
261.538
287.655
19.9335
73.3493
158.274
225.275
261.952
286.976
19.9294
73.3616
158.139
225.426
261.863
285.245
19.9259
73.3709
158.02
225.221
261.409
283.988
297.945
313.015
296.819
309.458
295.931
307.768
293.578
304.087
291.928
301.808
124.734
163.611
137.98
245.767
258.066
183.781
330.664
336.6
236.262
355.646
360.828
256.049
352.797
362.234
256.932
329.716
355.277
253.043
325.235
353.81
246.595
322.052
349.292
246.975
317.293
343.593
248.714
314.323
339.164
247.653
)
;

boundaryField
{
    inlet
    {
        type            calculated;
        value           nonuniform List<scalar> 10(19.9359 19.9352 19.9335 19.9294 19.9259 19.9367 19.9366 19.9364 19.9362 19.9361);
    }
    outlet
    {
        type            calculated;
        value           nonuniform List<scalar> 10(253.043 246.595 246.975 248.714 247.653 137.98 183.781 236.262 256.049 256.932);
    }
    bottom
    {
        type            symmetryPlane;
    }
    top
    {
        type            symmetryPlane;
    }
    obstacle
    {
        type            calculated;
        value           nonuniform List<scalar> 
12
(
279.478
279.41
279.558
280.12
281.176
124.734
245.767
330.664
355.646
352.797
297.945
313.015
)
;
    }
    defaultFaces
    {
        type            empty;
    }
}


// ************************************************************************* //
