/*--------------------------------*- C++ -*----------------------------------*\
| =========                 |                                                 |
| \\      /  F ield         | OpenFOAM: The Open Source CFD Toolbox           |
|  \\    /   O peration     | Version:  5.x                                   |
|   \\  /    A nd           | Web:      www.OpenFOAM.org                      |
|    \\/     M anipulation  |                                                 |
\*---------------------------------------------------------------------------*/
/*   Windows 32 and 64 bit porting by blueCAPE: http://www.bluecape.com.pt   *\
|  Based on Windows porting (2.0.x v4) by Symscape: http://www.symscape.com   |
\*---------------------------------------------------------------------------*/
FoamFile
{
    version     2.0;
    format      ascii;
    class       volScalarField;
    location    "0.008";
    object      p;
}
// * * * * * * * * * * * * * * * * * * * * * * * * * * * * * * * * * * * * * //

dimensions      [1 -1 -2 0 0 0 0];

internalField   nonuniform List<scalar> 
100
(
90728.1
73703
52517.6
39116.5
32935.6
32599.2
90728
73703.1
52517
39115.1
32944.9
32591.9
90728
73703.2
52516.3
39113.7
32949.8
32592.9
90728
73703.3
52515.6
39112.6
32951.7
32596.7
90728
73703.4
52515.2
39111.9
32952.1
32601.8
90728
73703.6
52514.1
39110.2
32948.2
32618.3
90727.9
73704.3
52510.9
39102.1
32950
32659.1
90727.8
73706.1
52498.8
39085.3
32915
32549.3
90727.4
73712.6
52488.2
39127
32708.1
32285.2
90726.7
73722
52484.6
39194.8
32687.3
32274.9
32180.5
31664.9
32309.9
31941.6
32133.2
31735.8
31824.1
31412.8
31830.5
31440.2
30926.4
30805.2
25199.9
30737.8
30653.4
25260
30632
30546
25251.3
30541.1
30469.3
25217
30468
30412.2
25184.6
30418.9
30315.1
25101
31096.1
30629.1
24859.6
30831.5
30284.9
24296.8
30679.9
30094.9
23710.4
30794.4
30249.5
24035.7
)
;

boundaryField
{
    inlet
    {
        type            zeroGradient;
    }
    outlet
    {
        type            zeroGradient;
    }
    bottom
    {
        type            symmetryPlane;
    }
    top
    {
        type            symmetryPlane;
    }
    obstacle
    {
        type            zeroGradient;
    }
    defaultFaces
    {
        type            empty;
    }
}


// ************************************************************************* //
