/*--------------------------------*- C++ -*----------------------------------*\
| =========                 |                                                 |
| \\      /  F ield         | OpenFOAM: The Open Source CFD Toolbox           |
|  \\    /   O peration     | Version:  5.x                                   |
|   \\  /    A nd           | Web:      www.OpenFOAM.org                      |
|    \\/     M anipulation  |                                                 |
\*---------------------------------------------------------------------------*/
/*   Windows 32 and 64 bit porting by blueCAPE: http://www.bluecape.com.pt   *\
|  Based on Windows porting (2.0.x v4) by Symscape: http://www.symscape.com   |
\*---------------------------------------------------------------------------*/
FoamFile
{
    version     2.0;
    format      ascii;
    class       surfaceScalarField;
    location    "0.008";
    object      phi;
}
// * * * * * * * * * * * * * * * * * * * * * * * * * * * * * * * * * * * * * //

dimensions      [1 0 -1 0 0 0 0];

internalField   nonuniform List<scalar> 
174
(
12.6221
0.00321864
20.296
-0.0215593
24.0514
0.07635
21.53
-0.0737228
18.9843
0.620087
0.774519
8.44103
0.00528468
13.5726
-0.0355851
16.088
0.123497
14.4017
-0.12862
12.6854
1.04984
1.27799
5.64492
0.006603
9.07634
-0.0446726
10.7615
0.151567
9.63323
-0.168693
8.48299
1.35482
1.59605
3.77502
0.00745032
6.06961
-0.0505826
7.19805
0.168511
6.44567
-0.199541
5.68473
1.55886
1.79766
2.52453
0.00800112
4.05894
-0.0544479
4.81402
0.179155
4.31579
-0.225912
3.8196
1.69379
1.93036
10.7153
0.0101387
17.2275
-0.0702829
20.4395
0.215842
18.3451
-0.366027
17.0343
1.5694
1.64516
15.6956
19.0556
0.0130333
30.6324
-0.0940978
36.3716
0.249709
32.625
-0.605989
30.2223
1.1932
1.18325
27.6059
33.8891
0.0151441
54.4569
-0.114296
64.751
0.186008
58.0088
-0.750736
53.3357
0.484406
0.240113
48.3435
60.2674
0.0103375
96.7808
-0.0769536
115.208
0.095668
102.912
-0.520999
93.5396
-0.184192
-0.36532
84.0579
107.171
172.016
204.75
182.751
165.411
148.217
15.5986
0.371895
0.273064
15.5768
27.4361
0.296197
0.243789
27.342
47.9458
0.051735
0.0136409
47.6801
83.3191
-0.111984
-0.155564
82.9724
146.914
146.37
7.47012
-0.425198
10.0381
-1.89905
-4.32429
8.84912
-0.525043
9.74518
-2.20332
-4.82248
7.49729
-0.621612
8.06953
-2.37534
-4.41401
5.38655
-0.701769
5.82186
-2.57078
-4.07067
3.64867
-0.779952
3.9573
-2.76582
-3.83816
14.9816
-0.229289
16.5368
-3.9473
-3.20775
27.1105
-0.0808396
27.5913
-3.55581
-4.53831
47.3769
-0.168518
47.7964
-3.13012
-7.84271
82.7379
-0.305448
84.1604
-2.36977
-9.32624
145.949
149.655
)
;

boundaryField
{
    inlet
    {
        type            calculated;
        value           nonuniform List<scalar> 10(-3.01222 -5.35639 -9.52433 -16.9334 -30.1069 -3.54863 -2.37309 -1.58697 -1.06126 -0.709705);
    }
    outlet
    {
        type            calculated;
        value           nonuniform List<scalar> 10(8.87975 15.4615 27.193 47.823 85.7031 6.06497 5.21901 4.31481 3.1339 2.11685);
    }
    bottom
    {
        type            symmetryPlane;
        value           uniform 0;
    }
    top
    {
        type            symmetryPlane;
        value           uniform 0;
    }
    obstacle
    {
        type            calculated;
        value           nonuniform List<scalar> 
12
(
17.1473
11.4595
7.66527
5.13787
3.45115
-6.75005
-8.5027
-7.23712
-5.20696
-3.53094
-0.426711
-0.32433
)
;
    }
    defaultFaces
    {
        type            empty;
        value           nonuniform 0();
    }
}


// ************************************************************************* //
