/*--------------------------------*- C++ -*----------------------------------*\
| =========                 |                                                 |
| \\      /  F ield         | OpenFOAM: The Open Source CFD Toolbox           |
|  \\    /   O peration     | Version:  5.x                                   |
|   \\  /    A nd           | Web:      www.OpenFOAM.org                      |
|    \\/     M anipulation  |                                                 |
\*---------------------------------------------------------------------------*/
/*   Windows 32 and 64 bit porting by blueCAPE: http://www.bluecape.com.pt   *\
|  Based on Windows porting (2.0.x v4) by Symscape: http://www.symscape.com   |
\*---------------------------------------------------------------------------*/
FoamFile
{
    version     2.0;
    format      ascii;
    class       volScalarField;
    location    "0.008";
    object      T;
}
// * * * * * * * * * * * * * * * * * * * * * * * * * * * * * * * * * * * * * //

dimensions      [0 0 0 1 0 0 0];

internalField   nonuniform List<scalar> 
100
(
338.016
323.324
275.159
279.666
295.706
353.1
338.016
323.324
275.156
279.659
295.791
353.148
338.016
323.324
275.153
279.651
295.873
353.235
338.016
323.324
275.15
279.661
295.744
353.158
338.016
323.324
275.146
279.709
295.187
352.962
338.016
323.323
275.142
279.735
294.866
330.156
338.015
323.323
275.134
279.708
295.159
331.964
338.015
323.322
275.116
279.626
295.737
333.637
338.015
323.325
275.117
279.641
295.826
334.249
338.015
323.333
275.131
279.737
295.992
334.874
366.822
369.859
365.13
368.531
365.271
368.785
364.688
368.124
364.951
368.414
378.757
376.596
380.36
394.834
391.196
394.882
415.863
408.862
410.555
414.515
406.235
409.201
404.472
399.55
406.016
380.178
392.351
403.276
380.943
394.649
397.509
380.527
393.395
393.045
380.208
391.897
390.209
380.867
391.909
391.492
)
;

boundaryField
{
    inlet
    {
        type            zeroGradient;
    }
    outlet
    {
        type            zeroGradient;
    }
    bottom
    {
        type            symmetryPlane;
    }
    top
    {
        type            symmetryPlane;
    }
    obstacle
    {
        type            zeroGradient;
    }
    defaultFaces
    {
        type            empty;
    }
}


// ************************************************************************* //
