/*--------------------------------*- C++ -*----------------------------------*\
| =========                 |                                                 |
| \\      /  F ield         | OpenFOAM: The Open Source CFD Toolbox           |
|  \\    /   O peration     | Version:  5.x                                   |
|   \\  /    A nd           | Web:      www.OpenFOAM.org                      |
|    \\/     M anipulation  |                                                 |
\*---------------------------------------------------------------------------*/
/*   Windows 32 and 64 bit porting by blueCAPE: http://www.bluecape.com.pt   *\
|  Based on Windows porting (2.0.x v4) by Symscape: http://www.symscape.com   |
\*---------------------------------------------------------------------------*/
FoamFile
{
    version     2.0;
    format      ascii;
    class       volVectorField;
    location    "0.008";
    object      U;
}
// * * * * * * * * * * * * * * * * * * * * * * * * * * * * * * * * * * * * * //

dimensions      [0 1 -1 0 0 0 0];

internalField   nonuniform List<vector> 
100
(
(19.9367 0.000361257 0)
(73.3284 -0.00392409 0)
(158.389 0.0233796 0)
(224.346 -0.0417821 0)
(260.771 0.632319 0)
(279.476 1.24328 0)
(19.9366 0.00094909 0)
(73.3296 -0.0103525 0)
(158.385 0.0602714 0)
(224.413 -0.113341 0)
(260.876 1.61792 0)
(279.391 3.26159 0)
(19.9364 0.00132127 0)
(73.3309 -0.0144899 0)
(158.38 0.0820528 0)
(224.487 -0.166801 0)
(260.997 2.33431 0)
(279.519 4.66849 0)
(19.9362 0.0015605 0)
(73.3319 -0.0171835 0)
(158.376 0.0952144 0)
(224.553 -0.204318 0)
(261.111 2.82045 0)
(280.068 5.42953 0)
(19.9361 0.00171589 0)
(73.3327 -0.0189456 0)
(158.373 0.103451 0)
(224.61 -0.23725 0)
(261.205 3.22091 0)
(281.11 6.09029 0)
(19.9359 0.00202103 0)
(73.3344 -0.022535 0)
(158.366 0.119698 0)
(224.718 -0.329763 0)
(261.36 3.22352 0)
(287.859 5.60637 0)
(19.9352 0.00261604 0)
(73.3391 -0.0302376 0)
(158.342 0.146802 0)
(224.919 -0.583144 0)
(261.523 2.79142 0)
(287.623 4.31621 0)
(19.9335 0.00347625 0)
(73.3493 -0.0419139 0)
(158.274 0.134614 0)
(225.274 -0.853546 0)
(261.947 1.5323 0)
(286.97 1.84529 0)
(19.9294 0.00296173 0)
(73.3616 -0.0362209 0)
(158.139 0.0778222 0)
(225.425 -0.730064 0)
(261.863 -0.265766 0)
(285.242 -1.163 0)
(19.9259 0.000969313 0)
(73.3709 -0.0118304 0)
(158.02 0.0237166 0)
(225.221 -0.253024 0)
(261.409 -0.415291 0)
(283.987 -0.823437 0)
(297.893 5.57912 0)
(312.985 4.31934 0)
(296.785 4.46695 0)
(309.436 3.62924 0)
(295.925 1.99027 0)
(307.764 1.62004 0)
(293.574 -1.57853 0)
(304.078 -2.35015 0)
(291.926 -0.996233 0)
(301.806 -1.24881 0)
(124.395 -9.19166 0)
(163.285 -10.3373 0)
(137.858 -5.79978 0)
(245.749 -2.95562 0)
(258.008 -5.4374 0)
(183.688 -5.83975 0)
(330.579 -7.52117 0)
(336.472 -9.26571 0)
(236.153 -7.19289 0)
(355.561 -7.79326 0)
(360.717 -8.96718 0)
(255.974 -6.17052 0)
(352.655 -9.99287 0)
(362.076 -10.6937 0)
(256.865 -5.85524 0)
(329.709 -2.16288 0)
(355.081 -11.8292 0)
(252.992 -5.0717 0)
(325.231 -1.55723 0)
(353.484 -15.1697 0)
(246.561 -4.09736 0)
(322.051 -0.524638 0)
(349.055 -12.8816 0)
(246.707 -11.4923 0)
(317.267 -4.03907 0)
(343.424 -10.7686 0)
(248.224 -15.5974 0)
(314.319 -1.69693 0)
(339.146 -3.50862 0)
(247.574 -6.27507 0)
)
;

boundaryField
{
    inlet
    {
        type            zeroGradient;
    }
    outlet
    {
        type            zeroGradient;
    }
    bottom
    {
        type            symmetryPlane;
    }
    top
    {
        type            symmetryPlane;
    }
    obstacle
    {
        type            zeroGradient;
    }
    defaultFaces
    {
        type            empty;
    }
}


// ************************************************************************* //
