/*--------------------------------*- C++ -*----------------------------------*\
| =========                 |                                                 |
| \\      /  F ield         | OpenFOAM: The Open Source CFD Toolbox           |
|  \\    /   O peration     | Version:  5.x                                   |
|   \\  /    A nd           | Web:      www.OpenFOAM.org                      |
|    \\/     M anipulation  |                                                 |
\*---------------------------------------------------------------------------*/
/*   Windows 32 and 64 bit porting by blueCAPE: http://www.bluecape.com.pt   *\
|  Based on Windows porting (2.0.x v4) by Symscape: http://www.symscape.com   |
\*---------------------------------------------------------------------------*/
FoamFile
{
    version     2.0;
    format      ascii;
    class       volScalarField;
    location    "0.002";
    object      mag(U);
}
// * * * * * * * * * * * * * * * * * * * * * * * * * * * * * * * * * * * * * //

dimensions      [0 1 -1 0 0 0 0];

internalField   nonuniform List<scalar> 
100
(
0.860237
11.0242
73.656
226.408
147.274
25.5831
0.715334
9.24334
70.2969
225.886
162.091
35.1469
0.676821
8.59961
69.099
220.144
173.425
43.1647
0.640821
8.09187
68.3604
220.419
179.12
46.9024
0.619134
7.70092
67.6889
218.595
185.477
52.0504
0.582338
7.17526
67.4622
226.304
185.986
60.5693
0.623422
7.96264
68.37
229.948
186.621
57.0002
0.606901
7.65318
68.0428
231.29
185.257
53.3137
0.623224
8.00171
69.0336
232.306
179.085
48.4212
0.62422
8.03793
69.3016
232.277
177.053
47.1263
21.5086
10.2606
19.071
9.14582
17.2566
8.0016
15.3934
7.13394
14.9984
6.9687
0.126843
0.0408652
0.00125727
0.467692
0.0685749
0.00152527
0.873392
0.115812
0.00166174
1.33624
0.171184
0.00340353
1.53004
0.222867
0.00563428
3.7874
0.348368
0.0112324
3.19817
0.380671
0.0114421
2.71331
0.352341
0.0107053
2.41471
0.322641
0.00977976
2.36174
0.316975
0.00962414
)
;

boundaryField
{
    inlet
    {
        type            calculated;
        value           nonuniform List<scalar> 10(0.582338 0.623422 0.606901 0.623224 0.62422 0.860237 0.715334 0.676821 0.640821 0.619134);
    }
    outlet
    {
        type            calculated;
        value           nonuniform List<scalar> 10(0.0112324 0.0114421 0.0107053 0.00977976 0.00962414 0.00125727 0.00152527 0.00166174 0.00340353 0.00563428);
    }
    bottom
    {
        type            symmetryPlane;
    }
    top
    {
        type            symmetryPlane;
    }
    obstacle
    {
        type            calculated;
        value           nonuniform List<scalar> 
12
(
25.5831
35.1469
43.1647
46.9024
52.0504
0.126843
0.467692
0.873392
1.33624
1.53004
21.5086
10.2606
)
;
    }
    defaultFaces
    {
        type            empty;
    }
}


// ************************************************************************* //
