/*--------------------------------*- C++ -*----------------------------------*\
| =========                 |                                                 |
| \\      /  F ield         | OpenFOAM: The Open Source CFD Toolbox           |
|  \\    /   O peration     | Version:  5.x                                   |
|   \\  /    A nd           | Web:      www.OpenFOAM.org                      |
|    \\/     M anipulation  |                                                 |
\*---------------------------------------------------------------------------*/
/*   Windows 32 and 64 bit porting by blueCAPE: http://www.bluecape.com.pt   *\
|  Based on Windows porting (2.0.x v4) by Symscape: http://www.symscape.com   |
\*---------------------------------------------------------------------------*/
FoamFile
{
    version     2.0;
    format      ascii;
    class       volScalarField;
    location    "0.002";
    object      p;
}
// * * * * * * * * * * * * * * * * * * * * * * * * * * * * * * * * * * * * * //

dimensions      [1 -1 -2 0 0 0 0];

internalField   nonuniform List<scalar> 
100
(
99794.3
95053.6
72710.3
31310.8
13989
11096.3
99833.1
95629.7
74712.8
34196.7
15600.3
11381.8
99846
95788.5
75259.2
35387.7
16457.6
11662.5
99856.8
95959
75881.1
36455.8
17001.3
11815
99863.9
96066.4
76304.8
37326.2
17532.2
11999.3
99875.5
96247.6
77025.3
38774
18065.4
12236.6
99863
96060.1
75938.9
38230.2
17725.9
12098.3
99871.5
96251.1
77933.7
40814.9
18016.2
12086.2
99864.4
96107.4
76801.2
39496.1
17235.3
11865.9
99863.6
96096.6
76666.9
38592.6
16897
11803.3
10819.2
10405.6
10778.3
10383.7
10721
10342.8
10639.5
10303.2
10620.6
10294.9
10009.9
9999.32
10000.1
10019.6
9999.91
10000.1
10034.4
10001.5
10000.2
10049.8
10003.5
10000.2
10064.4
10005.7
10000.2
10093.1
10010.5
10000.3
10112.5
10011.3
10000.4
10106.6
10010.8
10000.4
10096.9
10009.8
10000.3
10094.7
10009.6
10000.3
)
;

boundaryField
{
    inlet
    {
        type            zeroGradient;
    }
    outlet
    {
        type            zeroGradient;
    }
    bottom
    {
        type            symmetryPlane;
    }
    top
    {
        type            symmetryPlane;
    }
    obstacle
    {
        type            zeroGradient;
    }
    defaultFaces
    {
        type            empty;
    }
}


// ************************************************************************* //
