/*--------------------------------*- C++ -*----------------------------------*\
| =========                 |                                                 |
| \\      /  F ield         | OpenFOAM: The Open Source CFD Toolbox           |
|  \\    /   O peration     | Version:  5.x                                   |
|   \\  /    A nd           | Web:      www.OpenFOAM.org                      |
|    \\/     M anipulation  |                                                 |
\*---------------------------------------------------------------------------*/
/*   Windows 32 and 64 bit porting by blueCAPE: http://www.bluecape.com.pt   *\
|  Based on Windows porting (2.0.x v4) by Symscape: http://www.symscape.com   |
\*---------------------------------------------------------------------------*/
FoamFile
{
    version     2.0;
    format      ascii;
    class       surfaceScalarField;
    location    "0.002";
    object      phi;
}
// * * * * * * * * * * * * * * * * * * * * * * * * * * * * * * * * * * * * * //

dimensions      [1 0 -1 0 0 0 0];

internalField   nonuniform List<scalar> 
174
(
1.14365
-0.0919555
12.5478
-1.44949
25.4022
-2.29166
7.4956
-0.943361
2.17774
0.996164
0.204171
0.587123
-0.0736227
6.89429
-1.07161
15.2063
-2.02106
5.33411
-2.27781
1.59154
1.29629
0.249466
0.37865
-0.070132
4.9166
-1.06397
10.9178
-2.02375
4.04733
-2.47929
1.29818
1.69106
0.276354
0.232335
-0.0609028
3.0959
-0.91375
7.04659
-1.67841
2.86854
-2.77944
0.902037
2.05021
0.293733
0.149443
-0.0551076
2.11018
-0.865721
4.87671
-1.37918
2.04634
-2.75153
0.671816
2.35384
0.312518
0.571794
-0.00931821
8.50227
-0.316989
20.7428
0.462717
7.56493
-0.677727
2.5393
2.69653
0.473133
0.618614
1.141
0.0467474
15.5264
0.705013
36.2206
6.87017
13.2757
6.52384
4.34125
3.87697
0.8041
0.981607
1.97239
0.0191206
27.2514
0.151341
67.985
1.99311
24.5035
9.694
7.57842
2.96967
0.443522
1.61599
3.65962
0.0105594
49.7285
0.14874
118.394
1.72214
41.4296
3.21624
12.5099
0.829435
0.110469
2.57936
6.53421
88.8447
211.27
71.8636
21.7006
4.46809
0.32167
0.0584045
0.0251327
0.147664
0.510274
0.0631296
0.0258585
0.226007
0.806767
0.0298813
0.0114964
0.341486
1.27681
0.00668
0.00235326
0.53893
2.21403
0.936633
-1.94929e-005
-0.0108498
0.000503957
0.00143564
-0.000413073
-0.00191081
-0.0252305
0.000569009
-0.00119925
-0.000649134
-0.00270944
-0.041552
0.000593148
-0.00687141
-0.000765506
-0.00292594
-0.0570898
0.000496581
-0.0135399
-0.000863436
-0.00195661
-0.0699292
0.000436347
-0.0193284
-0.00091911
0.0398329
-0.0241726
0.00317278
-0.00761422
-0.000605758
0.0641079
-5.45916e-005
0.00656873
0.000745913
-4.78683e-005
0.0971913
0.00312732
0.0107448
0.000893387
6.16451e-005
0.154902
0.000724651
0.0175316
0.000202471
1.46803e-005
0.269968
0.0306718
)
;

boundaryField
{
    inlet
    {
        type            calculated;
        value           nonuniform List<scalar> 10(-0.0793469 -0.151869 -0.264299 -0.481704 -0.857836 -0.140558 -0.0779673 -0.0490744 -0.0310033 -0.0199724);
    }
    outlet
    {
        type            calculated;
        value           nonuniform List<scalar> 10(0.000149949 0.000275333 0.000453628 0.000740123 0.00129768 -1.1566e-005 -3.83664e-006 7.65395e-006 1.49488e-005 1.77704e-005);
    }
    bottom
    {
        type            symmetryPlane;
        value           uniform 0;
    }
    top
    {
        type            symmetryPlane;
        value           uniform 0;
    }
    obstacle
    {
        type            calculated;
        value           nonuniform List<scalar> 
12
(
0.750362
0.59288
0.547901
0.375023
0.300739
0.00150773
0.00446605
0.0057585
0.00602978
0.0042524
-0.0262043
-0.0130948
)
;
    }
    defaultFaces
    {
        type            empty;
        value           nonuniform 0();
    }
}


// ************************************************************************* //
