/*--------------------------------*- C++ -*----------------------------------*\
| =========                 |                                                 |
| \\      /  F ield         | OpenFOAM: The Open Source CFD Toolbox           |
|  \\    /   O peration     | Version:  5.x                                   |
|   \\  /    A nd           | Web:      www.OpenFOAM.org                      |
|    \\/     M anipulation  |                                                 |
\*---------------------------------------------------------------------------*/
/*   Windows 32 and 64 bit porting by blueCAPE: http://www.bluecape.com.pt   *\
|  Based on Windows porting (2.0.x v4) by Symscape: http://www.symscape.com   |
\*---------------------------------------------------------------------------*/
FoamFile
{
    version     2.0;
    format      ascii;
    class       volScalarField;
    location    "0.002";
    object      T;
}
// * * * * * * * * * * * * * * * * * * * * * * * * * * * * * * * * * * * * * //

dimensions      [0 0 0 1 0 0 0];

internalField   nonuniform List<scalar> 
100
(
348.224
343.225
307.564
381.833
328.686
288.525
348.264
343.875
309.035
383.967
335.311
290.885
348.277
344.054
309.279
387.875
344.042
293.655
348.288
344.244
309.836
390.336
347.104
294.918
348.295
344.365
309.999
393.789
353.376
296.986
348.307
344.558
312.194
396.203
350.391
297.312
348.294
344.348
311.524
394.431
348.44
296.303
348.303
344.557
313.268
403.256
350.906
296.149
348.295
344.397
312.039
400.337
346.212
294.388
348.295
344.385
311.84
397.818
344.056
293.89
285.13
281.939
284.812
281.766
284.368
281.445
283.743
281.135
283.599
281.071
278.824
278.74
278.747
278.901
278.745
278.747
279.02
278.758
278.747
279.141
278.773
278.748
279.256
278.791
278.748
279.489
278.83
278.749
279.64
278.836
278.749
279.592
278.832
278.749
279.515
278.824
278.749
279.498
278.823
278.749
)
;

boundaryField
{
    inlet
    {
        type            zeroGradient;
    }
    outlet
    {
        type            zeroGradient;
    }
    bottom
    {
        type            symmetryPlane;
    }
    top
    {
        type            symmetryPlane;
    }
    obstacle
    {
        type            zeroGradient;
    }
    defaultFaces
    {
        type            empty;
    }
}


// ************************************************************************* //
