/*--------------------------------*- C++ -*----------------------------------*\
| =========                 |                                                 |
| \\      /  F ield         | OpenFOAM: The Open Source CFD Toolbox           |
|  \\    /   O peration     | Version:  5.x                                   |
|   \\  /    A nd           | Web:      www.OpenFOAM.org                      |
|    \\/     M anipulation  |                                                 |
\*---------------------------------------------------------------------------*/
/*   Windows 32 and 64 bit porting by blueCAPE: http://www.bluecape.com.pt   *\
|  Based on Windows porting (2.0.x v4) by Symscape: http://www.symscape.com   |
\*---------------------------------------------------------------------------*/
FoamFile
{
    version     2.0;
    format      ascii;
    class       volVectorField;
    location    "0.002";
    object      U;
}
// * * * * * * * * * * * * * * * * * * * * * * * * * * * * * * * * * * * * * //

dimensions      [0 1 -1 0 0 0 0];

internalField   nonuniform List<vector> 
100
(
(0.852998 0.111364 0)
(10.8688 1.84442 0)
(72.3278 13.9243 0)
(222.461 42.0929 0)
(143.258 34.1595 0)
(24.5788 7.09772 0)
(0.715022 -0.0211246 0)
(9.20504 -0.84054 0)
(69.9979 -6.47671 -4.09274e-018)
(225.368 -15.2863 1.52557e-017)
(162.09 0.54933 0)
(35.1325 1.00842 2.96031e-017)
(0.676128 0.0306168 0)
(8.58525 0.496758 0)
(68.9321 4.7988 0)
(219.882 10.7415 0)
(172.279 19.9096 0)
(42.7161 6.20691 1.12018e-017)
(0.640759 0.00893115 0)
(8.09045 -0.151445 -1.20848e-018)
(68.3384 -1.73685 1.87766e-018)
(220.346 -5.66245 0)
(178.81 10.5307 0)
(46.8424 2.37206 8.4266e-018)
(0.618586 0.0260316 -3.71486e-019)
(7.69478 0.307358 5.24382e-019)
(67.6313 2.79245 0)
(218.522 5.65356 -2.99643e-018)
(184.001 23.3587 7.68205e-018)
(51.6106 6.75192 6.32418e-018)
(0.580911 -0.0407461 0)
(7.12497 -0.848058 0)
(67.1521 -6.46118 0)
(225.532 -18.6878 0)
(185.932 -4.47895 0)
(60.4901 -3.0958 0)
(0.622757 0.0287722 0)
(7.93825 0.622752 0)
(67.8412 8.48712 0)
(229.174 18.8496 0)
(185.1 23.7753 0)
(56.3387 8.6588 0)
(0.6069 -0.00135664 0)
(7.65286 -0.0695579 0)
(68.0396 -0.665057 0)
(230.994 11.6961 0)
(184.753 13.6614 0)
(53.1609 4.0337 0)
(0.623204 0.00497824 0)
(8.00107 0.101867 0)
(69.0141 1.64449 0)
(232.132 8.996 0)
(178.962 6.63397 0)
(48.3948 1.59848 0)
(0.62422 0.000277514 0)
(8.03793 0.00356312 0)
(69.3015 0.0933083 0)
(232.274 1.25079 0)
(177.051 0.836319 0)
(47.126 0.170693 0)
(21.4885 0.930713 0)
(10.2492 0.483638 0)
(18.9307 2.30919 0)
(9.10239 0.890294 0)
(17.2097 1.27116 0)
(7.98295 0.545987 0)
(15.3876 0.419782 0)
(7.13211 0.161742 0)
(14.9983 0.0406638 0)
(6.96868 0.0147754 0)
(0.0336805 -0.122289 1.12108e-016)
(0.0329019 0.0242369 -3.54792e-017)
(-0.000773071 -0.000991506 0)
(0.0656045 -0.463068 8.10083e-017)
(0.0652421 0.0211184 1.28083e-017)
(-0.00031577 -0.00149223 -4.0504e-018)
(0.114522 -0.865851 0)
(0.115632 0.00645187 0)
(0.0012051 -0.00114416 0)
(0.16566 -1.32593 4.35235e-017)
(0.168343 -0.0310589 -6.92501e-018)
(0.00325397 -0.000997848 0)
(0.270851 -1.50588 1.60752e-017)
(0.218773 -0.0425204 0)
(0.00563074 -0.000199872 0)
(3.64894 -1.01471 0)
(0.322555 -0.131598 0)
(0.0109341 -0.00257181 0)
(3.19542 -0.132748 0)
(0.380668 -0.00143129 0)
(0.011433 -0.000454918 0)
(2.71185 0.0891402 0)
(0.352263 0.00740348 0)
(0.0107045 0.000135086 0)
(2.41444 0.0364262 0)
(0.322623 0.00338672 0)
(0.00977945 7.74831e-005 0)
(2.36174 0.00349746 0)
(0.316974 0.000293028 0)
(0.00962414 7.47921e-006 0)
)
;

boundaryField
{
    inlet
    {
        type            zeroGradient;
    }
    outlet
    {
        type            zeroGradient;
    }
    bottom
    {
        type            symmetryPlane;
    }
    top
    {
        type            symmetryPlane;
    }
    obstacle
    {
        type            zeroGradient;
    }
    defaultFaces
    {
        type            empty;
    }
}


// ************************************************************************* //
