/*--------------------------------*- C++ -*----------------------------------*\
| =========                 |                                                 |
| \\      /  F ield         | OpenFOAM: The Open Source CFD Toolbox           |
|  \\    /   O peration     | Version:  5.x                                   |
|   \\  /    A nd           | Web:      www.OpenFOAM.org                      |
|    \\/     M anipulation  |                                                 |
\*---------------------------------------------------------------------------*/
/*   Windows 32 and 64 bit porting by blueCAPE: http://www.bluecape.com.pt   *\
|  Based on Windows porting (2.0.x v4) by Symscape: http://www.symscape.com   |
\*---------------------------------------------------------------------------*/
FoamFile
{
    version     2.0;
    format      ascii;
    class       volScalarField;
    location    "0.005";
    object      mag(U);
}
// * * * * * * * * * * * * * * * * * * * * * * * * * * * * * * * * * * * * * //

dimensions      [0 1 -1 0 0 0 0];

internalField   nonuniform List<scalar> 
10000
(
3.5062e-008
3.13859e-007
2.10566e-006
1.41857e-005
8.30008e-005
0.000469629
0.0023507
0.0110648
0.0463962
0.178091
0.595729
1.74426
4.43697
9.92262
19.4188
33.4293
51.177
71.0235
91.5739
111.901
131.679
150.733
169.055
186.326
202.625
217.925
231.896
244.378
255.474
265.128
273.36
279.915
284.365
287.359
289.737
291.665
293.443
295.572
298.252
301.343
304.653
308.017
311.559
315.45
319.648
323.988
328.244
332.227
335.723
338.397
339.944
340.16
338.84
335.662
330.25
321.868
313.04
304.666
295.183
282.184
3.44165e-008
3.06906e-007
2.04135e-006
1.37092e-005
7.96975e-005
0.000450088
0.00224395
0.0105559
0.0442041
0.170011
0.570102
1.67485
4.27442
9.59755
18.8648
32.622
50.1576
69.876
90.3809
110.726
130.558
149.705
168.137
185.542
202.032
217.545
231.718
244.417
255.802
265.815
274.405
281.304
286.08
289.31
291.825
293.746
295.241
296.733
298.481
300.388
302.315
304.149
305.921
307.72
309.502
311.14
312.475
313.378
313.711
313.336
312.146
310.088
307.104
303.064
297.563
289.237
280.859
273.84
267.647
259.393
3.42135e-008
3.05198e-007
2.0278e-006
1.36247e-005
7.91814e-005
0.000447468
0.00223136
0.0105045
0.0440132
0.169379
0.568362
1.67092
4.26702
9.58496
18.8458
32.5952
50.1154
69.7999
90.2498
110.517
130.243
149.304
167.537
184.896
201.224
216.467
230.511
243.18
254.43
264.178
272.54
279.368
284.208
287.457
289.862
291.579
292.684
293.648
294.766
295.951
297.083
298.042
298.882
299.839
301.068
302.567
304.214
305.9
307.445
308.572
308.99
308.483
306.893
304.082
299.546
292.297
284.047
276.466
268.802
259.585
3.36505e-008
2.995e-007
1.97628e-006
1.32482e-005
7.65746e-005
0.000432048
0.00214666
0.0100982
0.042246
0.162801
0.547298
1.61328
4.13032
9.30876
18.3699
31.8928
49.2169
68.7788
89.1791
109.459
129.225
148.387
166.656
184.231
200.713
216.017
230.263
243.292
254.874
264.843
273.339
280.347
285.536
289.159
291.843
293.67
294.592
295.018
295.331
295.549
295.602
295.382
294.894
294.392
294.138
294.247
294.733
295.544
296.519
297.422
297.983
297.913
296.959
294.95
291.49
285.518
278.071
271.448
265.315
257.768
3.33018e-008
2.96554e-007
1.95306e-006
1.31014e-005
7.567e-005
0.000427358
0.00212373
0.0100019
0.0418781
0.161546
0.543703
1.60467
4.11286
9.27716
18.3208
31.8269
49.1335
68.6638
89.0163
109.226
128.901
147.968
166.116
183.556
199.922
215.076
229.147
242.02
253.473
263.299
271.673
278.605
283.696
287.179
289.723
291.475
292.377
292.833
293.222
293.538
293.675
293.488
292.948
292.301
291.859
291.805
292.185
292.969
294.025
295.122
295.979
296.313
295.875
294.444
291.599
286.319
279.173
272.53
266.337
259.089
3.27799e-008
2.9161e-007
1.90979e-006
1.27927e-005
7.3552e-005
0.000414919
0.00205539
0.00967352
0.0404419
0.156153
0.526304
1.55664
3.99765
9.04206
17.9114
31.2151
48.3394
67.7517
88.0522
108.268
127.984
147.104
165.365
182.907
199.372
214.734
229.048
242.091
253.685
263.748
272.399
279.596
285.005
288.687
291.343
293.191
294.097
294.459
294.688
294.854
294.858
294.546
293.833
292.905
292.039
291.41
291.135
291.263
291.716
292.324
292.84
292.998
292.56
291.29
288.843
284.423
277.927
271.705
266.15
259.894
3.23568e-008
2.88059e-007
1.8818e-006
1.26147e-005
7.24451e-005
0.00040911
0.00202661
0.00955047
0.0399635
0.154498
0.521463
1.54478
3.97292
8.99638
17.8395
31.1189
48.224
67.6081
87.8675
108.02
127.655
146.697
164.837
182.265
198.639
213.847
227.983
240.897
252.398
262.34
270.876
277.99
283.277
286.833
289.4
291.247
292.28
292.899
293.512
294.157
294.695
294.946
294.791
294.351
293.876
293.547
293.468
293.667
294.084
294.571
294.914
294.902
294.347
293.038
290.592
286.274
279.802
273.343
267.662
261.755
3.18563e-008
2.83574e-007
1.84387e-006
1.23517e-005
7.06659e-005
0.000398793
0.00197019
0.0092802
0.0387801
0.150025
0.506961
1.50447
3.87538
8.79551
17.4863
30.5852
47.5214
66.791
86.9955
107.15
126.818
145.903
164.148
181.666
198.123
213.519
227.875
240.95
252.587
262.732
271.482
278.807
284.388
288.148
290.843
292.818
293.91
294.515
295.054
295.626
296.101
296.304
296.115
295.627
295.048
294.519
294.148
294.009
294.086
294.276
294.396
294.221
293.552
292.233
289.994
286.248
280.298
274.039
268.637
263.354
3.14019e-008
2.79799e-007
1.81415e-006
1.21623e-005
6.94799e-005
0.000392516
0.00193873
0.00914395
0.0382423
0.148143
0.501369
1.49052
3.84573
8.73995
17.3978
30.466
47.381
66.6261
86.7969
106.894
126.491
145.509
163.636
181.057
197.441
212.69
226.879
239.84
251.397
261.444
270.113
277.375
282.845
286.483
289.081
291.019
292.174
292.928
293.698
294.563
295.367
295.921
296.082
295.916
295.63
295.385
295.283
295.376
295.619
295.882
295.997
295.797
295.128
293.815
291.557
287.9
281.99
275.604
270.163
265.224
3.09169e-008
2.75631e-007
1.77991e-006
1.19311e-005
6.79405e-005
0.000383725
0.00189104
0.00891695
0.0372509
0.144381
0.48914
1.45639
3.7626
8.56742
17.092
29.9992
46.7587
65.8927
86.0052
106.101
125.724
144.777
163.004
180.502
196.95
212.37
226.762
239.876
251.56
261.776
270.61
278.049
283.783
287.62
290.336
292.361
293.516
294.178
294.781
295.465
296.093
296.484
296.5
296.197
295.758
295.326
295.011
294.882
294.944
295.12
295.236
295.076
294.453
293.232
291.231
288.106
282.882
276.776
271.41
266.917
3.04556e-008
2.71845e-007
1.75021e-006
1.1742e-005
6.67505e-005
0.000377391
0.001859
0.0087767
0.03669
0.142398
0.48317
1.44127
3.72993
8.50544
16.9921
29.8635
46.5996
65.7121
85.7987
105.844
125.404
144.398
162.508
179.931
196.325
211.596
225.827
238.847
250.473
260.616
269.393
276.782
282.44
286.208
288.856
290.869
292.102
292.887
293.651
294.528
295.365
295.966
296.171
296.014
295.679
295.345
295.146
295.162
295.353
295.589
295.726
295.612
295.09
293.982
292.06
289.019
284.037
278.078
272.698
268.558
2.99864e-008
2.67933e-007
1.71876e-006
1.15345e-005
6.53883e-005
0.000369731
0.00181782
0.00858231
0.0358453
0.139186
0.472729
1.41205
3.65853
8.35631
16.7259
29.454
46.0475
65.0532
85.0774
105.117
124.697
143.72
161.928
179.412
195.85
211.284
225.706
238.863
250.595
260.875
269.782
277.335
283.224
287.17
289.955
292.057
293.297
294.018
294.663
295.41
296.128
296.622
296.729
296.455
295.95
295.372
294.866
294.544
294.464
294.585
294.75
294.728
294.316
293.356
291.7
289.124
284.862
279.321
273.981
270.134
2.9533e-008
2.64252e-007
1.69002e-006
1.1352e-005
6.42365e-005
0.000363579
0.00178647
0.00844397
0.0352859
0.13719
0.46665
1.39646
3.62431
8.29067
16.6189
29.3071
45.8749
64.8614
84.8675
104.863
124.388
143.36
161.452
178.878
195.279
210.567
224.834
237.915
249.608
259.835
268.702
276.204
282.042
285.967
288.699
290.81
292.17
293.055
293.902
294.889
295.876
296.65
297.017
296.962
296.619
296.15
295.703
295.405
295.288
295.271
295.257
295.114
294.69
293.791
292.208
289.691
285.642
280.412
275.183
271.592
2.90821e-008
2.60573e-007
1.66092e-006
1.11634e-005
6.30125e-005
0.000356789
0.00175027
0.00827466
0.0345544
0.13441
0.457619
1.37117
3.56244
8.16084
16.3859
28.9464
45.384
64.2685
84.2087
104.194
123.734
142.728
160.92
178.389
194.816
210.261
224.709
237.909
249.684
260.022
268.994
276.651
282.695
286.781
289.662
291.87
293.258
294.129
294.93
295.88
296.86
297.668
298.105
298.121
297.807
297.278
296.654
296.084
295.69
295.497
295.406
295.217
294.745
293.84
292.365
290.114
286.563
281.772
276.562
273.089
2.86444e-008
2.57057e-007
1.63359e-006
1.09907e-005
6.19207e-005
0.000350949
0.00172035
0.00814176
0.034012
0.132458
0.451616
1.3556
3.52779
8.09369
16.2753
28.7928
45.2026
64.0694
83.9987
103.946
123.439
142.387
160.465
177.892
194.295
209.602
223.906
237.038
248.789
259.092
268.045
275.658
281.663
285.754
288.608
290.844
292.376
293.45
294.486
295.703
296.982
298.102
298.843
299.148
299.096
298.792
298.337
297.878
297.485
297.115
296.746
296.313
295.686
294.708
293.175
290.872
287.43
282.911
277.835
274.533
2.8214e-008
2.53602e-007
1.60658e-006
1.0818e-005
6.08101e-005
0.000344857
0.0016881
0.00799221
0.0333695
0.13002
0.44371
1.33348
3.47371
7.97977
16.0701
28.4737
44.7648
63.5349
83.3954
103.329
122.832
141.797
159.975
177.43
193.842
209.301
223.777
237.009
248.819
259.211
268.254
276.013
282.207
286.44
289.416
291.744
293.32
294.404
295.438
296.668
297.998
299.211
300.083
300.529
300.589
300.322
299.798
299.159
298.566
298.083
297.648
297.126
296.389
295.316
293.773
291.614
288.481
284.292
279.283
276.039
2.77963e-008
2.50281e-007
1.58089e-006
1.06564e-005
5.97879e-005
0.000339389
0.00165996
0.00786666
0.0328533
0.128149
0.437905
1.31825
3.43945
7.91274
15.9586
28.3172
44.5786
63.332
83.1877
103.089
122.553
141.475
159.544
176.97
193.368
208.699
223.041
236.215
248.011
258.384
267.421
275.142
281.296
285.542
288.517
290.869
292.58
293.876
295.145
296.63
298.232
299.723
300.86
301.56
301.873
301.841
301.518
301.035
300.481
299.841
299.141
298.39
297.492
296.313
294.691
292.464
289.385
285.418
280.573
277.468
2.73888e-008
2.47046e-007
1.55582e-006
1.04979e-005
5.87742e-005
0.000333878
0.00163095
0.00773313
0.0322823
0.125988
0.430908
1.29871
3.39174
7.81202
15.7767
28.0334
44.1868
62.849
82.6342
102.518
121.987
140.924
159.089
176.529
192.925
208.399
222.903
236.163
248
258.443
267.557
275.41
281.738
286.109
289.172
291.597
293.344
294.634
295.889
297.374
299.009
300.566
301.799
302.608
303.022
303.05
302.714
302.133
301.472
300.811
300.106
299.298
298.313
297.053
295.415
293.267
290.391
286.669
281.95
278.923
2.69934e-008
2.4393e-007
1.53182e-006
1.03476e-005
5.78243e-005
0.0003288
0.00160474
0.00761581
0.0317969
0.124218
0.425374
1.28406
3.35844
7.74629
15.6664
27.8769
43.9992
62.6453
82.4305
102.288
121.725
140.621
158.683
176.108
192.498
207.851
222.23
235.442
247.277
257.712
266.827
274.644
280.931
285.318
288.397
290.832
292.68
294.148
295.577
297.233
299.034
300.759
302.152
303.118
303.703
303.91
303.749
303.338
302.742
301.98
301.119
300.186
299.123
297.82
296.159
294.012
291.222
287.691
283.181
280.304
2.66098e-008
2.40912e-007
1.50857e-006
1.02018e-005
5.68959e-005
0.000323788
0.00157847
0.00749558
0.0312848
0.122285
0.419122
1.26663
3.31599
7.65657
15.5039
27.623
43.6472
62.2076
81.9218
101.759
121.195
140.104
158.258
175.685
192.064
207.552
222.084
235.368
247.229
257.718
266.902
274.839
281.281
285.778
288.907
291.383
293.231
294.634
295.976
297.543
299.281
300.981
302.394
303.417
304.077
304.357
304.235
303.8
303.197
302.511
301.712
300.781
299.696
298.379
296.743
294.689
292.062
288.748
284.444
281.664
2.62381e-008
2.38003e-007
1.48625e-006
1.00627e-005
5.6017e-005
0.000319096
0.00155419
0.0073867
0.0308319
0.120625
0.413901
1.25271
3.28404
7.59299
15.3964
27.4691
43.461
62.0056
81.7236
101.538
120.95
139.82
157.879
175.302
191.679
207.056
221.473
234.717
246.584
257.075
266.264
274.17
280.572
285.083
288.231
290.68
292.564
294.054
295.446
297.033
298.78
300.496
301.951
303.051
303.838
304.297
304.403
304.224
303.776
303.09
302.261
301.316
300.231
298.925
297.309
295.297
292.774
289.666
285.601
282.933
2.58785e-008
2.35193e-007
1.46471e-006
9.92847e-006
5.51652e-005
0.000314521
0.00153027
0.0072778
0.0303692
0.118883
0.40827
1.23704
3.24596
7.51247
15.2504
27.2406
43.1433
61.6077
81.2553
101.047
120.453
139.334
157.479
174.894
191.255
206.759
221.317
234.622
246.505
257.036
266.29
274.307
280.847
285.46
288.625
291.068
292.881
294.197
295.372
296.728
298.263
299.815
301.178
302.252
303.066
303.612
303.853
303.81
303.551
303.105
302.459
301.623
300.598
299.336
297.777
295.859
293.47
290.566
286.722
284.14
2.55307e-008
2.32487e-007
1.44402e-006
9.8001e-006
5.4354e-005
0.000310198
0.00150787
0.00717717
0.0299489
0.117337
0.403378
1.2239
3.21559
7.45162
15.1467
27.0909
42.9608
61.4097
81.0635
100.837
120.227
139.07
157.131
174.545
190.909
206.318
220.775
234.044
245.938
256.481
265.744
273.743
280.26
284.902
288.092
290.473
292.251
293.556
294.655
295.896
297.303
298.731
299.995
300.988
301.765
302.375
302.79
303.018
303.011
302.742
302.263
301.587
300.701
299.556
298.096
296.273
294.023
291.321
287.733
285.264
2.5195e-008
2.29878e-007
1.42409e-006
9.67651e-006
5.35715e-005
0.000306013
0.00148603
0.00707808
0.0295285
0.115758
0.398274
1.20972
3.18118
7.37887
15.0147
26.8842
42.6726
61.0467
80.6315
100.38
119.76
138.605
156.772
174.112
190.52
206.064
220.581
233.89
245.857
256.477
265.784
273.844
280.469
285.235
288.497
290.921
292.647
293.768
294.62
295.586
296.725
297.908
298.97
299.786
300.408
300.931
301.352
301.659
301.856
301.887
301.684
301.242
300.543
299.554
298.237
296.56
294.48
291.969
288.662
286.287
2.48709e-008
2.27367e-007
1.40495e-006
9.55816e-006
5.28241e-005
0.000302035
0.00146538
0.00698532
0.0291398
0.114323
0.393713
1.19741
3.15254
7.32111
14.9157
26.7401
42.4957
60.8544
80.4471
100.182
119.552
138.354
156.479
173.744
190.241
205.729
220.027
233.262
245.366
256.123
265.419
273.332
279.816
284.584
287.957
290.464
292.295
293.512
294.348
295.217
296.205
297.207
298.08
298.698
299.123
299.5
299.873
300.245
300.572
300.753
300.749
300.538
300.066
299.283
298.15
296.644
294.754
292.45
289.44
287.15
2.45584e-008
2.2495e-007
1.38653e-006
9.44441e-006
5.21048e-005
0.000298201
0.00144539
0.00689485
0.0287562
0.112885
0.389061
1.18449
3.12125
7.25496
14.7956
26.5518
42.233
60.5219
80.0478
99.7557
119.111
137.919
156.12
173.352
189.832
205.446
219.831
233.079
245.213
256.039
265.393
273.352
279.898
284.741
288.168
290.747
292.615
293.776
294.489
295.177
295.949
296.712
297.341
297.719
297.904
298.077
298.315
298.631
299.026
299.4
299.619
299.629
299.377
298.804
297.871
296.56
294.874
292.778
290.065
287.862
2.4257e-008
2.22623e-007
1.36884e-006
9.33539e-006
5.14165e-005
0.000294544
0.00142639
0.00680947
0.0283974
0.111557
0.384825
1.17301
3.09438
7.2005
14.7016
26.4144
42.063
60.3368
79.8715
99.5689
118.92
137.696
155.827
173.069
189.558
205.095
219.388
232.601
244.761
255.623
264.992
272.924
279.428
284.284
287.757
290.354
292.289
293.544
294.285
294.92
295.567
296.148
296.561
296.7
296.636
296.585
296.669
296.931
297.345
297.802
298.182
298.414
298.404
298.067
297.361
296.267
294.798
292.925
290.505
288.405
2.39667e-008
2.20386e-007
1.35183e-006
9.2307e-006
5.0755e-005
0.000291027
0.00140806
0.00672664
0.0280462
0.110242
0.380567
1.16119
3.06577
7.14
14.5917
26.2419
41.8223
60.031
79.5013
99.1707
118.502
137.283
155.479
172.697
189.164
204.799
219.19
232.433
244.594
255.48
264.9
272.904
279.505
284.454
287.978
290.62
292.564
293.762
294.389
294.856
295.299
295.647
295.812
295.689
295.348
295.039
294.92
295.057
295.462
296.038
296.601
297.039
297.257
297.156
296.684
295.817
294.57
292.924
290.795
288.807
2.36872e-008
2.18235e-007
1.3355e-006
9.13033e-006
5.01215e-005
0.000287666
0.00139059
0.00664811
0.0277155
0.109016
0.376643
1.15051
3.04069
7.08894
14.5032
26.1118
41.6604
59.8543
79.334
98.9959
118.327
137.082
155.211
172.447
188.925
204.483
218.797
232.022
244.208
255.12
264.547
272.535
279.107
284.074
287.635
290.29
292.281
293.539
294.174
294.585
294.915
295.101
295.067
294.714
294.115
293.553
293.227
293.235
293.591
294.195
294.879
295.508
295.95
296.087
295.85
295.214
294.191
292.778
290.929
289.058
2.34183e-008
2.16166e-007
1.3198e-006
9.03396e-006
4.95128e-005
0.000284435
0.00137374
0.00657212
0.0273931
0.107809
0.372731
1.13965
3.01438
7.0333
14.402
25.9529
41.4385
59.5717
78.9899
98.6228
117.931
136.689
154.874
172.088
188.546
204.182
218.584
231.847
244.032
254.954
264.42
272.468
279.136
284.199
287.82
290.514
292.507
293.716
294.257
294.533
294.704
294.713
294.485
293.916
293.073
292.258
291.703
291.537
291.809
292.439
293.231
294.01
294.637
294.983
294.965
294.545
293.734
292.547
290.961
289.21
2.31596e-008
2.14178e-007
1.30473e-006
8.94157e-006
4.89297e-005
0.000281347
0.00135767
0.00649992
0.0270885
0.106679
0.369104
1.12975
2.99106
6.98567
14.3192
25.8305
41.2855
59.4044
78.8319
98.4602
117.772
136.508
154.632
171.866
188.336
203.901
218.237
231.492
243.705
254.646
264.115
272.158
278.809
283.896
287.549
290.257
292.294
293.555
294.114
294.368
294.482
294.4
294.051
293.326
292.288
291.251
290.48
290.138
290.294
290.873
291.701
292.589
293.367
293.892
294.064
293.837
293.221
292.242
290.892
289.26
2.29109e-008
2.12268e-007
1.29026e-006
8.85286e-006
4.83694e-005
0.000278376
0.00134218
0.00643007
0.0267918
0.105568
0.365497
1.11972
2.96676
6.93423
14.2255
25.6833
41.0799
59.142
78.5111
98.1096
117.396
136.133
154.306
171.518
187.968
203.601
218.015
231.301
243.511
254.457
263.96
272.056
278.795
283.973
287.69
290.436
292.478
293.718
294.228
294.413
294.456
294.299
293.864
293.026
291.83
290.593
289.601
289.053
289.056
289.569
290.406
291.353
292.232
292.893
293.219
293.155
292.708
291.915
290.773
289.254
2.26715e-008
2.10432e-007
1.27636e-006
8.76783e-006
4.78329e-005
0.000275538
0.00132741
0.00636371
0.0265115
0.104527
0.362151
1.11058
2.94516
6.89
14.1484
25.5689
40.9364
58.9847
78.363
97.9591
117.252
135.971
154.089
171.322
187.785
203.353
217.711
230.998
243.236
254.197
263.701
271.795
278.522
283.72
287.462
290.219
292.306
293.607
294.17
294.396
294.468
294.327
293.888
293.009
291.716
290.32
289.121
288.356
288.171
288.547
289.324
290.282
291.222
291.98
292.425
292.496
292.191
291.558
290.591
289.177
2.24418e-008
2.08669e-007
1.26301e-006
8.68613e-006
4.73166e-005
0.000272804
0.00131313
0.00629936
0.0262377
0.1035
0.358813
1.10128
2.9226
6.84221
14.0612
25.4317
40.7448
58.74
78.063
97.629
116.895
135.613
153.772
170.986
187.428
203.052
217.479
230.797
243.03
253.99
263.522
271.663
278.473
283.76
287.564
290.361
292.463
293.773
294.342
294.577
294.677
294.572
294.167
293.298
291.961
290.447
289.056
288.053
287.633
287.832
288.503
289.416
290.367
291.177
291.706
291.885
291.7
291.204
290.385
289.071
2.2221e-008
2.06975e-007
1.2502e-006
8.60788e-006
4.6823e-005
0.000270195
0.00129956
0.00623842
0.0259801
0.102543
0.355734
1.09285
2.90267
6.80133
13.9897
25.3255
40.6111
58.5932
77.925
97.4906
116.765
135.469
153.58
170.814
187.27
202.837
217.217
230.539
242.798
253.771
263.303
271.449
278.253
283.556
287.377
290.18
292.327
293.714
294.37
294.698
294.899
294.897
294.59
293.798
292.487
290.92
289.388
288.171
287.504
287.47
287.958
288.763
289.672
290.486
291.058
291.314
291.223
290.836
290.138
288.917
2.20088e-008
2.05347e-007
1.23788e-006
8.53258e-006
4.63468e-005
0.000267675
0.00128637
0.00617897
0.0257267
0.101592
0.352633
1.0842
2.88162
6.75668
13.9081
25.197
40.4316
58.3638
77.6434
97.1788
116.426
135.125
153.272
170.486
186.923
202.537
216.977
230.327
242.578
253.547
263.104
271.293
278.173
283.555
287.433
290.273
292.44
293.853
294.547
294.928
295.206
295.301
295.102
294.417
293.181
291.623
290.013
288.628
287.73
287.455
287.732
288.375
289.183
289.949
290.522
290.82
290.796
290.495
289.892
288.759
2.18052e-008
2.03784e-007
1.22608e-006
8.4606e-006
4.58929e-005
0.00026528
0.00127391
0.00612308
0.0254904
0.100714
0.349807
1.07647
2.86331
6.71909
13.8423
25.0989
40.3079
58.2278
77.5158
97.0524
116.31
134.998
153.104
170.337
186.787
202.354
216.754
230.108
242.384
253.364
262.925
271.121
277.995
283.387
287.271
290.106
292.308
293.787
294.56
295.031
295.414
295.625
295.551
294.995
293.875
292.386
290.774
289.302
288.235
287.741
287.793
288.242
288.906
289.581
290.112
290.412
290.423
290.176
289.643
288.585
2.1609e-008
2.02282e-007
1.21471e-006
8.39111e-006
4.54529e-005
0.00026295
0.00126171
0.00606799
0.025255
0.099829
0.346914
1.06837
2.84358
6.67716
13.7656
24.9779
40.1389
58.0118
77.2507
96.7572
115.986
134.668
152.804
170.018
186.448
202.056
216.507
229.883
242.151
253.128
262.713
270.943
277.88
283.34
287.275
290.142
292.352
293.846
294.641
295.148
295.588
295.878
295.903
295.461
294.459
293.067
291.506
290.014
288.848
288.197
288.065
288.329
288.835
289.393
289.851
290.119
290.136
289.918
289.434
288.439
2.14215e-008
2.00841e-007
1.20385e-006
8.32497e-006
4.50361e-005
0.000260755
0.00125029
0.00601687
0.0250389
0.0990266
0.34433
1.06131
2.82685
6.64278
13.7053
24.888
40.0253
57.8868
77.1334
96.6426
115.884
134.558
152.658
169.891
186.334
201.902
216.321
229.702
241.993
252.983
262.572
270.808
277.736
283.202
287.138
289.99
292.22
293.751
294.59
295.144
295.642
296
296.105
295.76
294.866
293.579
292.098
290.642
289.448
288.703
288.435
288.547
288.907
289.345
289.712
289.927
289.924
289.709
289.252
288.307
2.12409e-008
1.99453e-007
1.19334e-006
8.26069e-006
4.46284e-005
0.000258594
0.00123894
0.00596556
0.0248191
0.0981983
0.341615
1.05369
2.80823
6.60317
13.6327
24.7734
39.8652
57.6825
76.8831
96.3624
115.575
134.24
152.365
169.579
186.003
201.607
216.067
229.464
241.749
252.74
262.351
270.613
277.592
283.118
287.106
289.994
292.229
293.764
294.604
295.161
295.672
296.057
296.205
295.922
295.107
293.906
292.506
291.106
289.923
289.141
288.8
288.811
289.058
289.394
289.675
289.829
289.795
289.569
289.127
288.22
2.1068e-008
1.98127e-007
1.18335e-006
8.20005e-006
4.42469e-005
0.000256589
0.00122853
0.00591902
0.0246225
0.0974691
0.339269
1.04728
2.79305
6.57196
13.5779
24.6915
39.7617
57.5684
76.7761
96.2594
115.485
134.145
152.241
169.472
185.909
201.481
215.914
229.316
241.623
252.629
262.246
270.514
277.485
283.016
287.003
289.875
292.122
293.678
294.535
295.103
295.625
296.026
296.199
295.956
295.198
294.065
292.738
291.402
290.256
289.474
289.101
289.052
289.223
289.48
289.689
289.786
289.714
289.467
289.032
288.154
2.0901e-008
1.96842e-007
1.17361e-006
8.14034e-006
4.38669e-005
0.000254572
0.00121791
0.0058709
0.0244157
0.0966883
0.3367
1.04005
2.77536
6.5343
13.5088
24.5824
39.6094
57.3743
76.5389
95.9926
115.19
133.839
151.954
169.167
185.586
201.185
215.653
229.07
241.371
252.377
262.012
270.305
277.323
282.91
286.949
289.855
292.106
293.661
294.509
295.058
295.564
295.954
296.128
295.901
295.177
294.091
292.821
291.543
290.441
289.679
289.307
289.239
289.369
289.575
289.733
289.785
289.68
289.414
288.983
288.127
2.0742e-008
1.95624e-007
1.16448e-006
8.08506e-006
4.352e-005
0.000252755
0.00120849
0.00582888
0.0242384
0.0960318
0.334589
1.03429
2.76172
6.50622
13.4595
24.5085
39.5158
57.2711
76.4422
95.9009
115.111
133.759
151.85
169.081
185.512
201.084
215.533
228.957
241.277
252.294
261.936
270.237
277.253
282.847
286.882
289.765
292.015
293.576
294.42
294.958
295.446
295.821
295.988
295.764
295.056
294.003
292.78
291.557
290.507
289.781
289.428
289.361
289.475
289.654
289.778
289.797
289.663
289.38
288.948
288.114
2.05877e-008
1.9443e-007
1.15538e-006
8.0291e-006
4.31626e-005
0.000250852
0.00119844
0.00578325
0.0240419
0.0952883
0.332136
1.02738
2.74477
6.47014
13.3933
24.404
39.3702
57.086
76.2168
95.6462
114.829
133.464
151.567
168.783
185.195
200.786
215.266
228.706
241.02
252.032
261.689
270.016
277.079
282.726
286.807
289.717
291.963
293.515
294.342
294.85
295.307
295.654
295.799
295.564
294.857
293.819
292.626
291.447
290.443
289.76
289.445
289.404
289.529
289.702
289.813
289.815
289.665
289.373
288.947
288.137
2.04419e-008
1.9332e-007
1.1471e-006
7.9793e-006
4.28514e-005
0.000249228
0.00119004
0.0057459
0.0238844
0.0947058
0.330265
1.02227
2.73268
6.44518
13.3493
24.3379
39.2864
56.9935
76.1301
95.5657
114.761
133.398
151.483
168.716
185.141
200.71
215.176
228.625
240.955
251.975
261.639
269.978
277.041
282.693
286.764
289.64
291.867
293.406
294.212
294.693
295.118
295.435
295.555
295.302
294.585
293.546
292.371
291.228
290.271
289.638
289.367
289.365
289.518
289.706
289.821
289.818
289.663
289.371
288.954
288.17
2.02981e-008
1.92196e-007
1.13849e-006
7.92602e-006
4.25094e-005
0.000247403
0.00118037
0.00570193
0.0236948
0.0939879
0.327892
1.01558
2.71628
6.41034
13.2855
24.2373
39.1466
56.8162
75.9152
95.3217
114.491
133.112
151.206
168.421
184.828
200.413
214.903
228.364
240.689
251.704
261.384
269.747
276.85
282.547
286.653
289.546
291.763
293.286
294.069
294.516
294.905
295.187
295.277
294.997
294.256
293.203
292.028
290.903
289.979
289.389
289.172
289.226
289.427
289.651
289.791
289.803
289.659
289.381
288.985
288.235
2.01661e-008
1.91203e-007
1.13116e-006
7.88231e-006
4.22378e-005
0.000245993
0.0011731
0.00566963
0.0235585
0.0934836
0.326271
1.01116
2.70576
6.38851
13.2469
24.179
39.0723
56.7342
75.8384
95.2521
114.434
133.059
151.141
168.372
184.792
200.361
214.84
228.308
240.648
251.675
261.364
269.735
276.836
282.531
286.625
289.479
291.666
293.162
293.913
294.325
294.677
294.924
294.978
294.662
293.882
292.795
291.604
290.489
289.597
289.055
288.893
289.007
289.267
289.541
289.72
289.761
289.641
289.388
289.022
288.317
2.00301e-008
1.9012e-007
1.12277e-006
7.83004e-006
4.19011e-005
0.000244192
0.00116355
0.00562625
0.0233716
0.0927777
0.323938
1.00459
2.68972
6.35457
13.1849
24.0815
38.9374
56.5636
75.6325
95.0172
114.174
132.78
150.866
168.08
184.481
200.064
214.561
228.038
240.378
251.409
261.115
269.506
276.637
282.372
286.498
289.37
291.551
293.038
293.769
294.151
294.468
294.676
294.687
294.321
293.483
292.336
291.1
289.969
289.093
288.591
288.493
288.684
289.018
289.361
289.6
289.69
289.612
289.4
289.083
288.436
1.99146e-008
1.89272e-007
1.11663e-006
7.79389e-006
4.16777e-005
0.000243037
0.00115759
0.00559972
0.0232591
0.0923591
0.322588
1.00088
2.68082
6.33591
13.1515
24.0307
38.8716
56.4899
75.5622
94.9543
114.122
132.736
150.814
168.045
184.463
200.037
214.529
228.016
240.378
251.428
261.145
269.542
276.668
282.399
286.514
289.353
291.507
292.971
293.676
294.024
294.302
294.467
294.43
294.006
293.093
291.855
290.529
289.345
288.47
288.017
287.994
288.274
288.7
289.127
289.442
289.596
289.574
289.413
289.159
288.581
1.97791e-008
1.88169e-007
1.108e-006
7.73993e-006
4.13303e-005
0.000241185
0.00114781
0.00555553
0.0230697
0.0916481
0.320245
0.994315
2.66479
6.30186
13.0886
23.9298
38.7292
56.3079
75.3425
94.7036
113.845
132.441
150.516
167.735
184.139
199.725
214.234
227.732
240.099
251.158
260.89
269.302
276.453
282.221
286.373
289.246
291.425
292.91
293.617
293.944
294.187
294.31
294.23
293.757
292.777
291.435
289.963
288.624
287.647
287.192
287.258
287.669
288.23
288.784
289.212
289.464
289.525
289.438
289.266
288.78
1.95183e-008
1.8634e-007
1.09537e-006
7.66684e-006
4.08852e-005
0.000238869
0.00113583
0.00550138
0.0228366
0.0907652
0.31736
0.98627
2.64522
6.26063
13.0159
23.8221
38.5944
56.1571
75.1977
94.5654
113.73
132.324
150.399
167.646
184.081
199.646
214.137
227.654
240.066
251.164
260.926
269.354
276.506
282.302
286.485
289.355
291.531
292.993
293.653
293.926
294.116
294.196
294.086
293.594
292.591
291.193
289.591
287.994
286.611
285.658
285.262
285.347
285.724
286.209
286.643
286.949
287.083
287.09
287.143
287.956
1.91998e-008
1.84123e-007
1.08479e-006
7.61449e-006
4.07349e-005
0.000238492
0.00113754
0.00551966
0.0229659
0.0913978
0.319895
0.994642
2.66869
6.31523
13.1221
23.9971
38.8432
56.465
75.5362
94.9082
114.078
132.668
150.746
167.953
184.345
199.952
214.453
227.918
240.263
251.316
261.033
269.412
276.504
282.219
286.33
289.093
291.15
292.533
293.126
293.349
293.507
293.576
293.479
293.028
292.1
290.819
289.371
287.948
286.725
285.877
285.495
285.499
285.733
286.052
286.337
286.534
286.614
286.618
286.671
287.203
1.88368e-008
1.81548e-007
1.06883e-006
7.52466e-006
4.02291e-005
0.000235937
0.00112475
0.00546259
0.0227188
0.0904464
0.316673
0.985272
2.64458
6.26152
13.0199
23.8316
38.6085
56.1691
75.1979
94.5573
113.708
132.301
150.413
167.658
184.079
199.66
214.162
227.679
240.078
251.164
260.927
269.319
276.439
282.244
286.428
289.252
291.359
292.753
293.32
293.499
293.609
293.634
293.502
293.03
292.09
290.794
289.313
287.83
286.528
285.598
285.175
285.19
285.45
285.792
286.089
286.3
286.412
286.472
286.617
287.204
1.84893e-008
1.79042e-007
1.05523e-006
7.44989e-006
3.99111e-005
0.000234542
0.00112074
0.00545258
0.0227236
0.0906102
0.317661
0.98949
2.65856
6.29784
13.0975
23.97
38.8248
56.4594
75.55
94.9242
114.117
132.695
150.751
167.963
184.345
199.946
214.436
227.895
240.242
251.293
261.011
269.378
276.438
282.132
286.219
288.91
290.9
292.25
292.801
292.989
293.14
293.238
293.218
292.906
292.178
291.156
290
288.851
287.863
287.182
286.895
286.954
287.181
287.44
287.648
287.775
287.822
287.83
287.904
288.293
1.81416e-008
1.76493e-007
1.04064e-006
7.36829e-006
3.94971e-005
0.000232534
0.00111159
0.0054139
0.022564
0.0900161
0.315628
0.983519
2.64258
6.26058
13.0223
23.8406
38.6258
56.1873
75.2059
94.5537
113.687
132.276
150.421
167.669
184.077
199.666
214.182
227.702
240.084
251.15
260.909
269.269
276.366
282.184
286.377
289.166
291.223
292.597
293.144
293.314
293.449
293.543
293.533
293.25
292.564
291.579
290.456
289.332
288.365
287.716
287.5
287.67
288.008
288.349
288.629
288.817
288.91
288.95
289.032
289.393
1.77946e-008
1.73916e-007
1.02628e-006
7.28648e-006
3.91156e-005
0.000230711
0.00110481
0.00538893
0.0224973
0.0898854
0.315569
0.984681
2.64903
6.28135
13.0735
23.9423
38.8038
56.4493
75.5585
94.9373
114.155
132.725
150.761
167.977
184.347
199.939
214.42
227.875
240.22
251.269
260.991
269.349
276.387
282.066
286.129
288.766
290.714
292.057
292.611
292.811
292.989
293.136
293.191
292.985
292.387
291.503
290.498
289.507
288.685
288.187
288.102
288.374
288.8
289.218
289.576
289.839
289.993
290.071
290.142
290.397
1.7454e-008
1.71318e-007
1.01189e-006
7.20356e-006
3.87194e-005
0.000228787
0.00109682
0.00535659
0.0223768
0.0894744
0.314217
0.980899
2.63893
6.25719
13.0217
23.8477
38.6451
56.2114
75.2233
94.5567
113.672
132.252