/*--------------------------------*- C++ -*----------------------------------*\
| =========                 |                                                 |
| \\      /  F ield         | OpenFOAM: The Open Source CFD Toolbox           |
|  \\    /   O peration     | Version:  5.x                                   |
|   \\  /    A nd           | Web:      www.OpenFOAM.org                      |
|    \\/     M anipulation  |                                                 |
\*---------------------------------------------------------------------------*/
/*   Windows 32 and 64 bit porting by blueCAPE: http://www.bluecape.com.pt   *\
|  Based on Windows porting (2.0.x v4) by Symscape: http://www.symscape.com   |
\*---------------------------------------------------------------------------*/
FoamFile
{
    version     2.0;
    format      ascii;
    class       volScalarField;
    location    "0.005";
    object      p;
}
// * * * * * * * * * * * * * * * * * * * * * * * * * * * * * * * * * * * * * //

dimensions      [1 -1 -2 0 0 0 0];

internalField   nonuniform List<scalar> 
10000
(
100000
100000
100000
100000
100000
99999.8
99999.2
99996.1
99983.2
99935.8
99779.1
99350.1
98337.5
96311.7
92858.1
87974.9
82134.6
75996.7
70116.9
64670.3
59735
55276.6
51279.1
47732.4
44571
41796.7
39378.3
37312
35577.2
34119.7
32969
32072.7
31371
30956.5
30724.4
30591.4
30508.4
30490
30490.2
30492.6
30498.2
30491.3
30499.2
30517.3
30524.1
30524.2
30524.7
30526.2
30529.6
30536.8
30565.8
30632.2
30738
30914.8
31260.5
31867.6
32422.5
32403.3
32330.5
32158.3
100000
100000
100000
100000
100000
99999.8
99999.2
99996.3
99983.9
99938.6
99788.1
99374.7
98394.8
96425.2
93046.6
88238.6
82454.7
76344.1
70469.1
65017.4
60070.4
55599.5
51586.3
48020.5
44841.9
42048.2
39609.2
37515.6
35758.3
34277.6
33100.7
32180
31452.9
31009.6
30748.5
30605.1
30517.1
30494.4
30494.4
30495.6
30500.4
30494.8
30500.8
30515.4
30526.8
30527.8
30528.1
30528.5
30529.4
30535.5
30559.7
30612.6
30706.5
30850.1
31135.8
31620.6
32311.3
32350.4
32321.4
32219.5
100000
100000
100000
100000
100000
99999.8
99999.2
99996.3
99984
99938.9
99788.9
99376.8
98399.1
96433
93058.3
88252.6
82468.2
76356
70480.2
65025.6
60077.5
55604.8
51588.8
48026.5
44846.5
42050.2
39608.8
37519.9
35761.2
34275.6
33094.2
32175.4
31448.1
30995.2
30746
30598.6
30510.1
30490.7
30491.6
30494.6
30502.2
30502.2
30501.7
30506.8
30523.8
30526
30526
30526.9
30529.4
30538.9
30558.7
30596
30673.6
30850
31150.8
31556.7
32255.8
32333.8
32307
32220
100000
100000
100000
100000
100000
99999.8
99999.2
99996.4
99984.6
99941.2
99796.4
99397.3
98447.4
96530
93221.2
88484.2
82754.1
76670.2
70800.6
65344.3
60385.9
55904.4
51875.2
48293.5
45098.6
42286.2
39827.1
37709.3
35930.4
34430.1
33220
32282
31539.3
31045.9
30776.3
30620.2
30522.4
30495.2
30495.4
30497.1
30502.3
30505.6
30502.6
30509.1
30529.1
30529.4
30528.8
30529.2
30530
30533.8
30551.4
30585.4
30643.4
30797.5
31074.2
31434.4
32121
32318.3
32300.7
32241.1
100000
100000
100000
100000
100000
99999.9
99999.2
99996.4
99984.7
99941.7
99797.8
99401
98454.9
96543.7
93242.1
88509.1
82778.3
76691.7
70820.3
65359
60399.2
55912.9
51880.9
48302.1
45105.5
42289.3
39827.7
37716.3
35937
34425.8
33219.4
32272.1
31527.6
31041.5
30773.8
30614.5
30515.6
30488.7
30489.3
30492
30499.1
30503.5
30499.1
30504.1
30522.5
30523.5
30522.8
30522.8
30523.9
30526.8
30540.4
30572.6
30626.6
30778.8
31036.5
31390.4
32067
32300.4
32286.1
32243.6
100000
100000
100000
100000
100000
99999.9
99999.2
99996.6
99985.2
99943.6
99804
99418.2
98495.8
96626.7
93383.1
88712.5
83033.6
76975.9
71112.6
65652.2
60682.9
56191.6
52148
48548.5
45339.8
42510.5
40032.3
37893.9
36092.2
34574.3
33336.1
32384.4
31618.1
31085
30811.7
30639.1
30532.4
30494.1
30494.2
30495.9
30501.4
30509.4
30502.5
30506.8
30522.1
30526
30526.9
30529
30529.6
30532
30542.4
30572
30625.9
30752.7
30954.9
31276.5
31916.3
32258.9
32250.3
32231.9
100000
100000
100000
100000
100000
99999.9
99999.3
99996.6
99985.4
99944.2
99805.9
99422.9
98505.7
96644.8
93411
88746.1
83066.7
77004.6
71138.8
65672.1
60702
56201.3
52155.7
48562.4
45350.2
42515.6
40034.7
37902.6
36102.2
34572.9
33340
32370.4
31608
31088.7
30805
30634.7
30527.8
30488.6
30489
30491.3
30497.2
30505.8
30498.7
30502.5
30506
30517.3
30518.4
30520.1
30521.8
30525.2
30534.6
30558.5
30618.5
30728.3
30891.7
31220.3
31825.8
32211.1
32225.5
32217.5
100000
100000
100000
100000
100000
99999.9
99999.3
99996.7
99985.8
99945.8
99811
99437.4
98540.4
96716.3
93533.3
88925
83294.6
77262.9
71405.9
65942
60963.4
56462.8
52405.8
48787.6
45569.1
42723.2
40227.1
38070.1
36247.1
34710
33450.9
32479.9
31701.7
31134.4
30850.8
30657.6
30546
30497.2
30495.6
30496.9
30501.5
30511
30504.8
30508.6
30509.2
30520.5
30525.7
30528.5
30530.1
30533.9
30544.7
30565.3
30620
30713.1
30851.1
31121.6
31670.6
32141.3
32217.3
32212.3
100000
100000
100000
100000
100000
99999.9
99999.3
99996.7
99986
99946.5
99813.1
99442.8
98551.9
96737.4
93566.4
88965.3
83334.9
77297.2
71436.9
65965.6
60986.4
56472.5
52416
48807.8
45580.9
42728.5
40231.5
38080.3
36258
34711.9
33455.8
32465.4
31689.4
31133.4
30838.2
30646.5
30537.3
30489.6
30489.8
30491.3
30496.2
30505.5
30500.1
30501.4
30502.4
30510
30517.2
30519.9
30522.2
30525.8
30533.3
30550.7
30601.4
30689
30817.3
31069
31555
32092.6
32218
32215.7
100000
100000
100000
100000
100000
99999.9
99999.3
99996.8
99986.3
99947.8
99817.5
99455.1
98581.5
96799.1
93672.8
89122.7
83538.2
77531.5
71681.7
66214.7
61227.9
56716.8
52648
49016.1
45788.4
42925.8
40413.3
38238.3
36394.4
34839.7
33561.8
32572.5
31778.5
31188
30887.1
30672.2
30553.2
30498.7
30495.7
30496.7
30500.6
30509.4
30505.5
30508.5
30510.9
30514.9
30525.2
30526.8
30529.9
30534.3
30541.6
30556.2
30597.7
30671.1
30779.3
31008.4
31439.9
32022.9
32224
32218
100000
100000
100000
100000
100000
99999.9
99999.3
99996.9
99986.5
99948.5
99819.7
99460.9
98594
96822.1
93709.4
89168.1
83584.3
77570.7
71716.2
66240.8
61253.1
56730.7
52661.4
49037.8
45799.5
42930.6
40418.3
38249.2
36406.4
34844
33567.8
32556.4
31768.9
31171.1
30861.6
30660.4
30542.6
30489.2
30489.3
30490.4
30494.1
30501.8
30498.3
30500.7
30505.7
30512.1
30517.6
30517.2
30517.5
30519.3
30525.3
30542.8
30582
30644.9
30744.6
30966.2
31346.6
31942.1
32218.1
32218.6
100000
100000
100000
100000
100000
99999.9
99999.3
99996.9
99986.8
99949.6
99823.5
99471.4
98619.6
96875.7
93802.4
89307
83765.8
77782.9
71940.5
66471.1
61476.7
56956
52876.3
49227.6
45989.4
43113.1
40586.8
38396
36534.2
34963.5
33668.1
32657.9
31851.7
31245.3
30916
30687.2
30557.4
30497.5
30493.5
30494.1
30496.6
30503.6
30500.9
30504.6
30511.9
30524.3
30526.6
30526.8
30527.3
30528.5
30535.7
30551.4
30580.1
30633.7
30724.2
30929.6
31249
31811.9
32186.7
32210.6
100000
100000
100000
100000
100000
99999.9
99999.3
99997
99987
99950.3
99825.7
99477.3
98632.5
96899.9
93841.1
89355.9
83816.3
77826.2
71977.9
66498.7
61503.3
56971.8
52892.1
49253.6
46004.4
43120.7
40594.4
38407.3
36547.5
34968.2
33673.1
32642.7
31838
31213.7
30884.8
30678
30550.1
30489.8
30485.9
30486.8
30489.9
30495.2
30491.1
30495.1
30503.4
30520.1
30519.7
30517.8
30516.2
30515.4
30517
30532.3
30563.3
30613.6
30706.2
30886.4
31166.1
31691.8
32110.7
32164.8
100000
100000
100000
100000
100000
99999.9
99999.4
99997
99987.3
99951.3
99829
99486.5
98654.7
96946.8
93922.8
89478.7
83978.4
78018.2
72183.4
66712.2
61710.8
57180.2
53091.4
49430.2
46180.9
43291.3
40751
38544.6
36667
35080.8
33768.5
32737.4
31920.7
31291.4
30930.1
30706.1
30565.3
30498.3
30487.5
30488.2
30490.8
30497.7
30494.5
30498.9
30508.4
30524.1
30524.3
30524.4
30526.1
30527.4
30529.5
30539.5
30565.5
30613.9
30699.2
30844.1
31083.1
31578
31999.8
32107.3
100000
100000
100000
100000
100000
99999.9
99999.4
99997.1
99987.5
99952
99831.2
99492.3
98667.7
96971.3
93962.5
89529.7
84032
78064.8
72223
66740.6
61738.6
57196.3
53109.7
49457.8
46199.6
43300.9
40761
38557.3
36681
35086.3
33772.7
32725.1
31906
31274.1
30918.9
30694.3
30561.7
30494.1
30481.1
30481.9
30484.8
30491.3
30486.6
30490.8
30501.6
30516.3
30515.7
30514.5
30514
30514.7
30520.1
30530.5
30557.7
30601
30673.4
30802.4
31013.1
31472.3
31896.2
32049.8
100000
100000
100000
100000
100000
99999.9
99999.4
99997.1
99987.7
99952.9
99834.1
99500.4
98687.2
97012.6
94034.8
89638.9
84177
78238.5
72411.2
66939
61931.2
57388.9
53293.5
49619.9
46359.8
43459.8
40906.9
38685.7
36792.7
35191.9
33863.2
32810
31985.4
31330.5
30954
30731
30578
30503.5
30484.8
30485.3
30487.8
30494.5
30491.3
30495.1
30505.4
30517.8
30518.2
30519.5
30521
30527.9
30532.2
30539.4
30559.9
30598.5
30660.7
30773.7
30963.3
31383.7
31796
31996.8
100000
100000
100000
100000
100000
99999.9
99999.4
99997.2
99987.9
99953.5
99836.2
99506
98700
97037
94074.7
89690.9
84232.7
78287.6
72452.5
66967.3
61959.5
57409.2
53314.4
49648.6
46381
43470.7
40918.8
38700
36807.7
35199
33867.6
32804.9
31972.6
31327.6
30944.6
30711.8
30576.3
30502.3
30481.9
30482.5
30484.7
30490.3
30485.1
30489.2
30500.6
30510.8
30511
30510.8
30510.5
30511
30520.3
30533.4
30554.1
30584.2
30638
30735.9
30915.4
31304.4
31707.2
31956
100000
100000
100000
100000
100000
99999.9
99999.4
99997.2
99988.1
99954.3
99838.8
99513.1
98717.3
97073.5
94138.9
89788.3
84362.7
78444.9
72624.9
67151.9
62138.5
57586.9
53484.3
49798.3
46528.7
43618.4
41053.8
38819.8
36911.5
35297.1
33953.7
32883.5
32046.5
31378.7
30981.3
30752.4
30592.1
30512.1
30487.2
30487.5
30489
30493.8
30489.3
30493.5
30504.1
30511.3
30512.5
30515.3
30517.2
30521.1
30526
30535.5
30554.6
30580.1
30628.5
30715.7
30887.2
31245.5
31629.2
31922.4
100000
100000
100000
100000
100000
99999.9
99999.4
99997.3
99988.2
99954.9
99840.8
99518.6
98729.7
97097.3
94178.3
89840.4
84419.4
78495.6
72667.4
67179.5
62166.7
57608.8
53506.7
49827.8
46552.1
43630.7
41067.5
38835.2
36927.1
35305.5
33958.4
32880.8
32035.6
31378.3
30972.4
30729
30591.9
30512.6
30486.3
30486.7
30488.1
30492.1
30486.1
30490.5
30501.3
30505.5
30505.4
30506.3
30506.8
30508.1
30512.8
30523.2
30541.1
30564.4
30608.9
30689.2
30848.9
31179.9
31565.8
31896.6
100000
100000
100000
100000
100000
99999.9
99999.4
99997.3
99988.4
99955.6
99843.1
99524.9
98745.1
97129.9
94235.8
89927.7
84536.3
78638.2
72825.5
67352.1
62333.2
57775.3
53663.7
49966.4
46688
43767.9
41192
38946.4
37023.6
35396.9
34040.3
32953
32105.1
31423.1
31007
30772.9
30606.9
30522
30491.6
30491.7
30492.8
30496.5
30490.8
30494.7
30504.2
30507.1
30507.9
30510.2
30513.2
30514.8
30516.1
30522.4
30538.2
30560.7
30601.8
30678.7
30822.1
31124.6
31516.5
31875.8
100000
100000
100000
100000
100000
99999.9
99999.4
99997.4
99988.6
99956.2
99845.1
99530.1
98757
97152.9
94274.2
89979.2
84593.2
78689.8
72868.5
67378.7
62361.1
57795.6
53687.6
49996.3
46712.7
43781.2
41206.7
38962.6
37039.5
35406.1
34044.7
32952.5
32096.1
31425.9
31001.7
30744.9
30607.6
30523.4
30491.8
30492.1
30493.1
30496.4
30490.8
30493
30500
30503.9
30503.9
30502.6
30501
30501.6
30503
30509.4
30525.9
30547.2
30585
30654.8
30784.1
31060.9
31459.2
31848.6
100000
100000
100000
100000
100000
99999.9
99999.4
99997.4
99988.7
99956.8
99847.1
99535.8
98770.9
97182.1
94326
90057.9
84698.6
78819.3
73013.7
67539.8
62516
57947.7
53832.8
50125.4
46838.4
43908.9
41322.3
39066.1
37129.4
35491.3
34121.9
33020
32160.1
31469.8
31036.3
30790.4
30620.6
30531.4
30496.6
30496.6
30497.3
30501
30500
30494.3
30499.9
30507.7
30507.6
30506.8
30506.5
30506.1
30505.7
30509.7
30522.6
30545.4
30577.6
30637.4
30756.8
31005.5
31387.1
31814.2
100000
100000
100000
100000
100000
99999.9
99999.4
99997.4
99988.9
99957.4
99849
99540.6
98782.1
97204.2
94363
90108
84754.9
78871
73056.7
67565.8
62544
57969.1
53857.8
50154.7
46863.5
43923.1
41337.6
39083
37145.3
35501.4
34126.3
33020
32153.3
31473.8
31033.6
30762.3
30622.1
30532.9
30497.8
30498
30498.8
30501
30500
30492.2
30498.3
30507
30506
30503.1
30501.3
30495.6
30494.8
30500.1
30508.9
30533.9
30562
30613.9
30720
30940
31301
31789.6
100000
100000
100000
100000
100000
99999.9
99999.4
99997.5
99989
99957.9
99850.8
99545.8
98794.7
97230.5
94410
90179.3
84850.5
78989
73190.2
67715.8
62687.9
58110.7
53992.1
50274.6
46980.8
44042.5
41445.3
39178.6
37229.5
35580.5
34199.2
33084.8
32213.4
31515.5
31066.4
30798.4
30632.2
30539.2
30501.3
30501.2
30501.5
30503
30502.8
30496.8
30501.8
30510.9
30510
30507.4
30502
30499.9
30498
30502.6
30504.4
30529.2
30553.4
30595.6
30685.8
30877.2
31215.8
31727.2
100000
100000
100000
100000
100000
99999.9
99999.4
99997.5
99989.2
99958.4
99852.5
99550.3
98805.3
97251.4
94445.3
90227.7
84905.5
79040.2
73232.9
67741.2
62715.7
58133.2
54017.5
50303.1
47004.7
44056.6
41460.7
39195.9
37245.7
35591.6
34203.9
33085
32208.1
31518
31065.5
30779.4
30634.1
30539.9
30502
30502.1
30502.8
30504.3
30504.5
30497.8
30501.6
30509.8
30508.4
30505
30498
30492.7
30490.1
30495
30494.2
30518.7
30539.2
30574.1
30648.9
30816.6
31127.7
31625.2
100000
100000
100000
100000
100000
99999.9
99999.5
99997.5
99989.3
99958.9
99854.3
99555.1
98816.8
97275.4
94488.1
90292.6
84992.6
79148
73355.7
67880.7
62849.4
58265.3
54142.2
50414.2
47112.9
44167.1
41560.4
39284.2
37323.8
35664.9
34272.9
33146.7
32264.6
31556.3
31094.2
30812
30642.7
30545.6
30504
30503.8
30504.2
30505.3
30507.3
30501
30504.1
30511.7
30511
30508.1
30502.1
30500.4
30491.3
30494.3
30492.2
30514.8
30531.4
30558.1
30616.8
30761.7
31041.3
31510.3
100000
100000
100000
100000
100000
99999.9
99999.5
99997.6
99989.4
99959.4
99855.8
99559.3
98826.8
97295.1
94521.7
90338.9
85045.8
79198.1
73397.6
67905.7
62876.8
58287.3
54167.2
50442.3
47136.5
44182
41576.1
39301.7
37340.3
35676.3
34277.4
33147.9
32257.2
31558.2
31093.1
30791.3
30643.3
30545.6
30504.2
30504.1
30504.6
30506.1
30508.8
30502.6
30504.9
30511.2
30510.5
30506.8
30499.2
30495.2
30485.9
30487.9
30486.9
30507.9
30520.8
30541.4
30588.9
30711.7
30960.1
31389.6
100000
100000
100000
100000
100000
99999.9
99999.5
99997.6
99989.6
99959.9
99857.4
99563.6
98837.3
97317.1
94560.9
90398.4
85125.6
79297
73510.9
68035.3
63001.1
58410.8
54283
50545.3
47236.9
44283.3
41668.3
39383.5
37412.7
35744.4
34342.5
33205.2
32312.6
31594.8
31119.9
30823.7
30652.9
30549.9
30505.3
30504.4
30504.9
30506.6
30509.7
30504
30506.2
30512.2
30512.2
30509.5
30503.8
30499
30489.4
30487.6
30485.9
30505.1
30514.3
30528.2
30566.7
30669.7
30882.5
31272.6
100000
100000
100000
100000
100000
99999.9
99999.5
99997.6
99989.7
99960.3
99858.9
99567.5
98846.5
97335.6
94592.5
90442.4
85176.5
79345.5
73551.8
68060
63027.7
58431.3
54307.4
50573.1
47260.5
44299.4
41684.4
39401.1
37429.1
35756
34347.1
33206.7
32304.6
31598
31118.7
30806.8
30652.4
30549.7
30504.4
30503.9
30504.5
30506.3
30509.7
30504.5
30506.7
30512.6
30512.4
30509.3
30502.8
30495
30488.5
30485.1
30483.5
30501
30506.9
30515.8
30547.2
30633.9
30814.6
31160.9
100000
100000
100000
100000
100000
99999.9
99999.5
99997.6
99989.8
99960.7
99860.3
99571.5
98856.2
97355.7
94628.6
90497.2
85249.9
79436.5
73656.4
68180.3
63143.4
58546.9
54415.2
50669
47353.7
44392.6
41769.7
39476.9
37496.1
35819.5
34408.3
33259.7
32358.5
31632.4
31143.8
30831.4
30661.2
30553.8
30504.8
30503.3
30503.8
30505.8
30509.6
30504.6
30507.2
30513.5
30513.4
30510.6
30505.5
30498
30493.2
30485
30482.4
30499.1
30502.1
30506.6
30530.3
30602.7
30757.3
31057.7
100000
100000
100000
100000
100000
99999.9
99999.5
99997.7
99989.9
99961.1
99861.7
99575.1
98864.8
97373
94658.2
90538.6
85298.3
79483.1
73695.9
68204.5
63169.2
58566.9
54438.8
50696.4
47376.9
44409.4
41786.2
39494.5
37512.5
35831.2
34413.3
33262.1
32350.4
31635.8
31142.4
30821.8
30660.6
30553.4
30503.2
30502
30502.7
30504.9
30509.2
30504.2
30507
30513.9
30513.4
30510.1
30504.9
30494.3
30494.2
30484
30480.3
30496.8
30497.5
30498.9
30515.9
30575.3
30707.6
30963.7
100000
100000
100000
100000
100000
99999.9
99999.5
99997.7
99990
99961.5
99863
99578.8
98873.8
97391.7
94691.7
90589.4
85366.2
79567.2
73792.8
68316.3
63276.8
58674.4
54539.3
50785.9
47464.6
44496
41865.5
39564.9
37574.7
35890.5
34470.6
33311.3
32402.6
31667.1
31166.3
30838.8
30668.5
30557.1
30503.3
30501.1
30501.7
30503.9
30508.8
30503.8
30506.5
30514.2
30513.3
30510.3
30506.3
30496.6
30495.5
30483
30479.3
30494.8
30494.8
30492.9
30504.3
30551.6
30663.7
30881.6
100000
100000
100000
100000
100000
99999.9
99999.5
99997.7
99990.1
99961.9
99864.3
99582.1
98881.8
97407.7
94719.3
90628.3
85411.9
79611.6
73830.8
68340
63301.9
58693.8
54562.1
50812.4
47487
44513
41882
39582.4
37590.9
35902.3
34476
33314.7
32394.3
31670.3
31164.7
30834.6
30668.5
30556.9
30501.8
30500
30500.5
30502.9
30508.2
30503.2
30505.9
30513.7
30512.5
30509.9
30506
30495.8
30493.9
30480.5
30478.3
30490.6
30492.6
30488.4
30495.5
30532.4
30625.3
30811.9
100000
100000
100000
100000
100000
99999.9
99999.5
99997.7
99990.2
99962.3
99865.5
99585.5
98890.1
97425
94750.5
90675.6
85475.1
79689.7
73920.7
68443.8
63402.1
58793.7
54655.8
50895.8
47569.3
44593.8
41956.1
39648.1
37648.8
35957.9
34529.6
33360.5
32442.5
31699.2
31188.9
30848.1
30676.4
30560.2
30501.9
30499.2
30499.7
30501.9
30507.4
30502.6
30505.5
30512.9
30511.8
30510
30506.8
30498
30493.4
30478.6
30477.9
30485.5
30490
30485.8
30489.3
30517.3
30592.8
30754.4
100000
100000
100000
100000
100000
99999.9
99999.5
99997.8
99990.3
99962.6
99866.7
99588.6
98897.5
97439.9
94776.1
90711.7
85517.8
79731.6
73957
68466.9
63426.4
58812.6
54677.7
50921.2
47590.6
44610.4
41972.2
39665.2
37664.9
35969.5
34535.3
33364.7
32435.5
31703.3
31186.9
30845
30677.2
30560
30500.7
30498.4
30499
30501.1
30506.4
30502.1
30505
30511.8
30511
30509.7
30506.9
30498.9
30490.3
30476.8
30477.4
30480.8
30485
30484.3
30485.6
30506.3
30565.9
30706.5
100000
100000
100000
100000
100000
99999.9
99999.5
99997.8
99990.4
99962.9
99867.8
99591.8
98905.2
97456
94805.3
90756
85576.9
79804.4
74040.6
68563.4
63519.7
58905.7
54765.1
50999
47667.5
44685.6
42041.4
39726.6
37719
36021.5
34585.3
33407.4
32480.3
31730.1
31212.4
30857.9
30684.6
30563.4
30501
30498.1
30498.6
30500.5
30505.7
30501.8
30504.6
30510.8
30510.3
30509.5
30507.3
30500.3
30489.5
30476
30477.2
30477.3
30477.4
30483.8
30483.7
30499.4
30544.5
30665.5
100000
100000
100000
100000
100000
99999.9
99999.5
99997.8
99990.4
99963.3
99868.9
99594.6
98912
97469.8
94828.9
90789.5
85616.6
79843.7
74075
68585.8
63543.1
58924.4
54786.2
51023.2
47687.7
44701.8
42057.1
39743.1
37734.6
36033
34591.2
33412.2
32474.9
31734.8
31208.6
30855.9
30685.9
30563.7
30500.3
30497.8
30498.2
30500.2
30505.2
30501.5
30504.2
30510
30509.7
30509
30506.8
30499.8
30487
30474.9
30476
30473.1
30470.5
30483.5
30483
30495.3
30528.4
30628.7
100000
100000
100000
100000
100000
99999.9
99999.5
99997.8
99990.5
99963.6
99870
99597.6
98919.2
97484.9
94856.3
90831.1
85672.1
79911.9
74153.1
68675.4
63630
59010.9
54867.6
51095.7
47759.5
44771.7
42121.6
39800.7
37785.1
36081.8
34637.9
33452
32516.7
31759.6
31236.4
30868.5
30692.8
30567.1
30500.9
30497.9
30498.3
30500.2
30505.1
30501.4
30504
30509.4
30509.4
30508.7
30506.4
30499.9
30486.8
30474.6
30473.4
30469.1
30465.9
30482
30483.7
30493
30517.9
30595
100000
100000
100000
100000
100000
99999.9
99999.5
99997.8
99990.6
99963.9
99871
99600.2
98925.5
97497.5
94878.1
90861.9
85708.9
79948.5
74185.5
68697.2
63652.5
59029.1
54887.9
51118.9
47778.6
44787.3
42136.7
39816.5
37800
36093.1
34643.9
33457.1
32512.5
31764.7
31232
30867.8
30694.5
30567.9
30500.8
30497.8
30498.3
30500.2
30505.2
30501.7
30504
30509.1
30509.2
30508.3
30505.7
30498.8
30485.8
30473.8
30469.7
30466
30462.7
30479
30485.3
30491.7
30511.2
30564.4
100000
100000
100000
100000
100000
99999.9
99999.5
99997.9
99990.7
99964.1
99872
99603
98932.3
97511.7
94903.9
90901.2
85761.3
80012.5
74258.4
68780.5
63733.4
59109.5
54963.8
51186.5
47845.7
44852.3
42197
39870.4
37847.4
36138.7
34687.7
33494.2
32551.9
31787.8
31256.7
30879.6
30701.1
30571.5
30501.9
30498.3
30498.8
30500.6
30505.6
30502.2
30504.2
30509.1
30509.1
30508
30505.4
30498
30487
30473.1
30466.5
30463.8
30460.7
30475.9
30487.2
30490.7
30506.7
30538.2
100000
100000
100000
100000
100000
99999.9
99999.5
99997.9
99990.8
99964.4
99872.8
99605.4
98938
97523.2
94923.8
90929.4
85795
80046.4
74288.8
68801.5
63755.1
59126.9
54983.2
51208.6
47863.8
44867.4
42211.4
39885.5
37861.5
36149.5
34693.5
33499.4
32548.4
31793.1
31257.3
30879.9
30703.1
30572.7
30502.5
30498.7
30499.2
30501
30506
30502.8
30504.6
30509.1
30509.1
30507.7
30505.2
30496.5
30487.2
30471.9
30464.2
30462
30459.5
30473.2
30489.1
30489.3
30501.9
30516.7
100000
100000
100000
100000
100000
99999.9
99999.5
99997.9
99990.8
99964.7
99873.8
99608
98944.4
97536.7
94948.3
90966.8
85844.7
80106.7
74357.1
68878.9
63830.5
59202.1
55054
51271.7
47926.5
44927.9
42267.7
39936.1
37905.9
36192.2
34734.6
33533.9
32585
31814.4
31275.7
30890.9
30709.4
30576.4
30504.1
30499.7
30500
30501.7
30506.6
30503.6
30505.2
30509.2
30509.1
30507.6
30505.1
30495.7
30487.8
30471.5
30463
30461.3
30459.5
30471.5
30490.8
30487.8
30495.9
30499.8
100000
100000
100000
100000
100000
99999.9
99999.5
99997.9
99990.9
99964.9
99874.6
99610.1
98949.6
97547.1
94966.4
90992.4
85875.4
80137.9
74385.5
68899.3
63851.2
59218.9
55072.7
51292.7
47943.7
44942.5
42281.5
39950.3
37919.2
36202.5
34740.3
33539.1
32582.2
31819.9
31277.6
30892
30711.6
30577.8
30505.3
30500.4
30500.8
30502.5
30507.2
30504.7
30505.9
30509.4
30509.2
30507.7
30504.9
30494.9
30487.3
30470.9
30462.5
30461.2
30460.1
30470.3
30492
30486.5
30488.3
30485
100000
100000
100000
100000
100000
99999.9
99999.5
99997.9
99991
99965.2
99875.5
99612.6
98955.7
97560
94989.7
91028
85922.6
80194.9
74449.6
68971.2
63921.4
59289.6
55138.5
51351.7
48002.3
44999.1
42334.1
39997.9
37961.1
36242.4
34778.7
33571.3
32615.7
31839.7
31294.7
30902.5
30717.7
30581.5
30507.3
30501.8
30502.1
30503.5
30507.9
30505.5
30506.8
30509.7
30509.6
30508
30504.8
30494.6
30488.8
30470.8
30462.9
30462.1
30461.7
30469.7
30492.1
30485.8
30481.1
30470.5
100000
100000
100000
100000
100000
99999.9
99999.5
99997.9
99991
99965.4
99876.2
99614.6
98960.3
97569.3
95006
91051.2
85950.5
80223.5
74476.1
68990.9
63941.4
59305.2
55156.5
51371.6
48018.7
45013
42347.2
40011.2
37973.5
36252.2
34784.4
33576.5
32613.9
31845.4
31297.5
30904
30719.9
30583.1
30508.8
30503
30503.3
30504.6
30508.6
30506.2
30507.9
30510.3
30510.1
30508.4
30504.8
30494.8
30488.1
30470.4
30463.2
30463.1
30463.5
30469.4
30491.1
30485.5
30473.5
30457.1
100000
100000
100000
100000
100000
99999.9
99999.5
99998
99991.1
99965.6
99877
99617
98966.2
97581.7
95028.4
91085.3
85995.6
80277.5
74536.2
69057.6
64006.7
59371.6
55217.9
51426.8
48073.6
45066.1
42396.5
40055.9
38012.9
36289.5
34820.2
33606.4
32644.4
31863.9
31313
30913.8
30725.6
30586.9
30511
30504.7
30504.8
30505.9
30509.6
30507
30509.1
30511.1
30510.8
30509
30504.9
30495.4
30490.3
30470.9
30464.2
30464.6
30465.5
30469.7
30489.2
30485.1
30466.7
30446.4
100000
100000
100000
100000
100000
99999.9
99999.5
99998
99991.1
99965.8
99877.7
99618.7
98970.3
97589.9
95042.9
91105.9
86020.7
80303.6
74560.9
69076.7
64025.8
59386.1
55235.1
51445.5
48089
45079.2
42408.9
40068.4
38024.5
36298.7
34825.9
33611.6
32643.6
31869.7
31316
30915.7
30727.8
30588.4
30512.8
30506.1
30506.2
30507.2
30510.6
30507.9
30510.2
30512.1
30511.7
30509.8
30504.9
30496.1
30491.3
30471
30464.9
30465.7
30467.1
30470.3
30486.2
30483.5
30461.1
30437.8
100000
100000
100000
100000
100000
99999.9
99999.6
99998
99991.2
99966.1
99878.5
99621
98976
97601.9
95064.5
91138.8
86063.8
80354.7
74617.3
69138.5
64086.7
59448.2
55292.3
51497.3
48140.6
45129.2
42455.1
40110.5
38061.7
36333.7
34859.2
33639.5
32671.4
31887.1
31330.5
30924.9
30733.2
30592.2
30515
30508
30508
30508.7
30511.8
30509
30511.4
30513.2
30512.7
30510.9
30505.1
30497.1
30492.4
30471.8
30466.4
30467.1
30468.9
30471.3
30482.9
30481.1
30457.7
30432.6
100000
100000
100000
100000
100000
99999.9
99999.6
99998
99991.2
99966.2
99879.1
99622.5
98979.6
97609.1
95077.3
91157.1
86086.3
80378.5
74640.2
69157.1
64104.9
59462
55308.9
51514.7
48155
45141.4
42466.7
40122.1
38072.4
36342.3
34864.9
33644.6
32671.7
31892.8
31333.4
30927
30735.2
30593.7
30516.7
30509.5
30509.4
30510.1
30512.9
30510
30512.5
30514.3
30513.8
30511.9
30505.4
30498
30493.6
30472.5
30467.2
30467.8
30470.1
30471.5
30478.7
30477.3
30454.9
30428.9
100000
100000
100000
100000
100000
99999.9
99999.6
99998
99991.3
99966.5
99879.9
99624.7
98985.1
97620.7
95098.3
91188.8
86127.7
80426.9
74693.2
69214.4
64161.7
59519.7
55362.1
51563.4
48203.5
45188.5
42510.2
40161.6
38107.7
36375
34895.8
33670.6
32696.5
31909.4
31347
30935.6
30740.4
30597.5
30519.1
30511.4
30511.4
30512
30514.5
30511.5
30513.9
30515.9
30515.3
30513.3
30505.9
30499.2
30495.7
30474
30469
30469.2
30471.3
30471.9
30475.5
30473.8
30454.3
30428.8
100000
100000
100000
100000
100000
99999.9
99999.6
99998
99991.4
99966.8
99881.1
99628.2
98993.5
97637.8
95128.5
91232.4
86181.8
80486.1
74751.5
69263.7
64209.4
59555.7
55405.8
51608.4
48240.1
45219.7
42539.8
40191.9
38135
36397.5
34912.1
33684.9
32699.1
31923.9
31354.1
30941.5
30744.2
30599.7
30521.4
30513.7
30513.6
30514.3
30516.6
30514.7
30515.9
30519.3
30518.6
30516.1
30507.3
30501.9
30498.9
30476.6
30471.4
30470.5
30471.6
30470.7
30467.1
30462.9
30450.2
30420.3
100000
100000
100000
100000
100000
99999.9
99999.6
99998
99991.3
99966.6
99880.1
99624.6
98984
97615.8
95087.9
91168
86095.4
80385.2
74649.1
69170.8
64124
59487
55329.7
51531.3
48180.3
45168.8
42489.8
40141
38088.1
36358
34881.6
33658.5
32677.1
31909.3
31343.9
30933.5
30740.7
30599.8
30525.7
30520.4
30520.7
30522.1
30525.4
30522
30524.6
30527.4
30526.5
30522.7
30514.5
30508.5
30505.4
30488.6
30477.9
30473.6
30472.7
30469.3
30454.4
30453.1
30448
30428.4
100000
100000
100000
100000
100000
99999.9
99999.6
99998
99991.4
99966.9
99881.4
99628.3
98993.4
97636.1
95126
91227
86175.1
80481.8
74752.2
69271.1
64216.8
59562.7
55413.9
51609.2
48241.2
45219.7
42541.4
40195.9
38137.7
36402.6
34922.8
33692.2
32710
31934.7
31355.6
30945
30746.1
30603.2
30529.1
30524.1
30524.2
30525.5
30529.2
30527
30529.5
30533.5
30532.3
30528.5
30521.3
30513.9
30510.2
30502.8
30484.3
30478.6
30472.2
30466.2
30451.2
30449.4
30452.5
30436.9
100000
100000
100000
100000
100000
99999.9
99999.6
99998.1
99991.4
99966.8
99881
99626.3
98987.6
97621
95095.8
91174.1
86096.9
80380.3
74640.8
69156.9
64113.7
59469.8
55321.1
51524.5
48177.8
45166.7
42486.8
40139
38086.1
36355
34879.3
33655.5
32666.6
31914.1
31344.6
30930.8
30737.8
30597.6
30525.7
30523
30523.4
30525.3
30530.4
30530.4
30529.2
30536
30535.6
30532.2
30526.9
30516
30508.3
30505
30488.5
30476.7
30461
30459.8
30451.9
30456.7
30466.4
30435
100000
100000
100000
100000
100000
99999.9
99999.6
99998.1
99991.5
99967.1
99881.8
99628.6
98993.9
97635.1
95124.3
91221.2
86166.6
80474.1
74750
69276.3
64224
59575.7
55423.8
51612.1
48242.9
45221.1
42542.5
40197.2
38139
36404.5
34930.4
33698.6
32719.1
31944.7
31359.9
30944.8
30745.2
30601.3
30526.4
30522.5
30522.8
30524.6
30529.8
30533.9
30528.7
30534.7
30536.1
30534
30528.8
30517.7
30509.9
30507.8
30496.6
30474.8
30461.3
30459.9
30455.1
30462.9
30468.3
30415.8
100000
100000
100000
100000
100000
99999.9
99999.6
99998.1
99991.5
99967.1
99881.8
99628
98991.1
97626.3
95103.5
91180.8
86099.8
80377.3
74634
69144.1
64103
59449.9
55310.3
51517.9
48175.9
45166
42485.2
40137.5
38085.2
36351.4
34876.9
33652.7
32659.8
31912.8
31342.7
30926.5
30734.5
30595.2
30520.3
30516.5
30517.1
30519.5
30526.4
30532
30524.4
30528.5
30532.6
30531.7
30527
30515.2
30503.5
30502.7
30492.5
30469.2
30461.9
30457.1
30453.1
30461
30458.4
30398.8
100000
100000
100000
100000
100000
99999.9
99999.6
99998.1
99991.5
99967.3
99882.3
99629.5
98994.9
97635.3
95123.2
91215.8
86156.7
80462.9
74743.9
69278.4
64230.2
59592.7
55435.7
51614.3
48241.7
45220.8
42542.4
40196.9
38139
36404.5
34935.4
33703.4
32727.2
31953.5
31367.6
30947.4
30749.6
30606.9
30527.8
30519.5
30519.8
30521.6
30527.1
30534.9
30524.3
30525
30530.1
30529.7
30526.7
30516.5
30503.5
30501.4
30491
30468.1
30465.4
30461.3
30456.4
30461.3
30455.8
30404
100000
100000
100000
100000
100000
99999.9
99999.6
99998.1
99991.6
99967.4
99882.6
99629.7
98994.3
97631.5
95110.7
91187.9
86103.6
80376.1
74629.1
69133.1
64092.4
59423.7
55296.5
51510.5
48172.3
45164.1
42483
40135.6
38084
36347.8
34874.5
33648
32657.6
31912.4
31340.3
30924.2
30734
30600
30524
30517.4
30517.9
30520.2
30526
30529.9
30519.8
30520.6
30522.8
30522.9
30519.9
30514.3
30500.4
30488.9
30467.5
30460.4
30459.3
30458.8
30454.2
30452.8
30452.1
30415.3
100000
100000
100000
100000
100000
99999.9
99999.6
99998.1
99991.6
99967.5
99883
99630.7
98996.6
97637
95122.9
91211.6
86146.1
80448.4
74733.2
69276
64234.3
59605.8
55448.4
51615.9
48239.4
45219.8
42544.2
40200.7
38142.7
36408.7
34942.9
33710.8
32737.2
31961.6
31373.1
30947.8
30751.8
30611.8
30533.4
30525.3
30525.3
30526.3
30529.4
30532.1
30521.8
30522
30521.1
30520.8
30519.7
30516.6
30502.1
30480.3
30470.1
30468.4
30466.2
30466.6
30464.5
30463.5
30468.9
30442
100000
100000
100000
100000
100000
99999.9
99999.6
99998.1
99991.7
99967.7
99883.3
99631.5
98997.4
97636.7
95117.3
91195
86107.9
80376.3
74626.5
69124.7
64083
59404.5
55281.2
51502.5
48168.2
45161.7
42481.8
40135.9
38084.4
36346.9
34875.9
33645.4
32655.4
31908.8
31335.7
30920.3
30729.3
30596.9
30522.1
30517.1
30517.4
30519
30523.2
30527.9
30517
30516.7
30515.7
30515.5
30514.8
30510.3
30491.6
30468.8
30464.6
30466.8
30466.5
30465.9
30462.9
30459.7
30467.7
30448.4
100000
100000
100000
100000
100000
99999.9
99999.6
99998.1
99991.7
99967.8
99883.7
99632.4
98999
97640
95123.8
91209
86135.4
80431
74717.6
69267.6
64234.8
59617.5
55462.4
51619.1
48238
45219.3
42547.1
40207.4
38149.5
36417.4
34953.5
33719.6
32750.8
31981
31388.9
30952
30751
30606.5
30529.3
30521.1
30521.3
30522.6
30526.5
30531
30519.8
30519.5
30518.3
30518.1
30517.8
30511.2
30503
30477.1
30476.4
30475.7
30487.6
30485.3
30476.1
30472.6
30480.7
30476.6
100000
100000
100000
100000
100000
99999.9
99999.6
99998.1
99991.8
99967.9
99884
99633.3
99000.5
97641.8
95123.2
91202
86111.7
80376.8
74625.7
69119.4
64075.4
59383.3
55265.3
51493.2
48164.6
45160
42482.6
40139
38085.5
36348.1
34879.1
33643.6
32653.5
31899.5
31328.2
30914.2
30725.8
30587.4
30513.5
30507.4
30507.9
30510
30515.3
30524.6
30513.2
30514
30513
30514.5
30514.1
30507.5
30499.8
30475.7
30471.3
30470
30481.9
30477.7
30466.2
30462.5
30462.7
30463.8
100000
100000
100000
100000
100000
99999.9
99999.6
99998.2
99991.8
99968.1
99884.4
99634.2
99002.1
97644.4
95126.6
91209.1
86125.6
80411.8
74697.3
69252
64229.7