/*--------------------------------*- C++ -*----------------------------------*\
| =========                 |                                                 |
| \\      /  F ield         | OpenFOAM: The Open Source CFD Toolbox           |
|  \\    /   O peration     | Version:  5.x                                   |
|   \\  /    A nd           | Web:      www.OpenFOAM.org                      |
|    \\/     M anipulation  |                                                 |
\*---------------------------------------------------------------------------*/
/*   Windows 32 and 64 bit porting by blueCAPE: http://www.bluecape.com.pt   *\
|  Based on Windows porting (2.0.x v4) by Symscape: http://www.symscape.com   |
\*---------------------------------------------------------------------------*/
FoamFile
{
    version     2.0;
    format      ascii;
    class       surfaceScalarField;
    location    "0.005";
    object      phi;
}
// * * * * * * * * * * * * * * * * * * * * * * * * * * * * * * * * * * * * * //

dimensions      [1 0 -1 0 0 0 0];

internalField   nonuniform List<scalar> 
19740
(
3.34666e-009
-2.23832e-010
2.32782e-008
-1.8406e-009
1.56978e-007
-1.06571e-008
9.4024e-007
-6.21477e-008
5.35921e-006
-3.09558e-007
2.74652e-005
-1.47999e-006
0.000131066
-6.15711e-006
0.000564208
-2.35497e-005
0.00221826
-7.73448e-005
0.00780803
-0.000222833
0.0243552
-0.000687667
0.065005
-0.00153095
0.150217
-0.00273161
0.303193
-0.00440997
0.532
-0.00600779
0.815569
-0.00608681
1.11359
-0.00458132
1.39168
-0.00291573
1.634
-0.00189157
1.83667
-0.00158766
2.00541
0.0005493
2.13883
-0.00215444
2.24331
0.00250219
2.33873
0.00132389
2.3941
0.000680694
2.42449
0.00166447
2.46088
0.00192034
2.50019
0.00445923
2.51825
0.00232217
2.50927
0.000153786
2.48696
0.00250835
2.46249
5.3383e-005
2.45568
-0.0059596
2.48075
0.00824331
2.51226
-0.00421971
2.53047
-0.00731529
2.54206
-0.00708943
2.55948
-0.0129654
2.58184
-0.0225499
2.58942
-0.027407
2.53533
-0.0358176
2.34911
-0.0393989
2.15706
-0.032843
1.99513
-0.0247364
1.86911
-0.022992
1.77805
-0.0196723
1.71815
-0.0173438
1.68063
-0.0129185
1.65751
-0.0081651
1.64954
-0.0055225
1.65386
-0.00411406
1.65627
-0.00182276
1.66254
0.000247565
1.67759
0.00360364
1.71084
0.0187928
1.71327
0.0134422
1.7114
0.0438862
1.68775
0.058851
1.62115
0.098934
0.0912815
3.16487e-009
-4.02423e-010
2.18191e-008
-3.29918e-009
1.46373e-007
-1.88314e-008
8.70406e-007
-1.08784e-007
4.94086e-006
-5.32262e-007
2.51939e-005
-2.50956e-006
0.000119903
-1.02104e-005
0.000514842
-3.82494e-005
0.0020241
-0.00012276
0.00713043
-0.00033896
0.0222815
-0.00103145
0.0596229
-0.00221043
0.138315
-0.00382723
0.280259
-0.00576453
0.494179
-0.0078129
0.761565
-0.00757656
1.04508
-0.00522154
1.31156
-0.0027922
1.5452
-0.00170484
1.74153
-0.00164795
1.9052
0.00193294
2.03599
-0.00465188
2.13963
0.00526511
2.23288
0.00197002
2.28729
-0.000446618
2.3212
0.00216591
2.36128
0.00366027
2.39984
0.00654794
2.41642
0.00231649
2.4081
-0.00160772
2.38962
0.00130552
2.37272
-0.00423888
2.37749
-0.0109693
2.40542
0.0198866
2.4282
-0.00824885
2.43917
-0.0157411
2.44691
-0.01487
2.45594
-0.0210349
2.46203
-0.0345493
2.45647
-0.0469662
2.39464
-0.0631463
2.20339
-0.0660275
2.00625
-0.0499563
1.84295
-0.0345624
1.71879
-0.0291805
1.63419
-0.0228139
1.58195
-0.0178753
1.55237
-0.011266
1.53592
-0.00435464
1.52819
0.000890327
1.52699
0.00452727
1.53296
0.010737
1.53074
0.0131122
1.51814
0.014761
1.53106
0.0317199
1.51728
0.0315843
1.50035
0.0911726
1.49374
0.0965146
1.46995
0.152435
0.175702
3.04569e-009
-5.74786e-010
2.09907e-008
-4.71952e-009
1.40979e-007
-2.69832e-008
8.39121e-007
-1.56354e-007
4.77201e-006
-7.68553e-007
2.43752e-005
-3.64432e-006
0.000116257
-1.49527e-005
0.000500226
-5.65772e-005
0.00197042
-0.000184404
0.00694732
-0.000514636
0.0217753
-0.0015906
0.0583763
-0.00346998
0.135592
-0.00614422
0.275
-0.00945916
0.485195
-0.0130496
0.747763
-0.0129284
1.0257
-0.00940229
1.28649
-0.00552253
1.51457
-0.0035295
1.70609
-0.00283116
1.86466
0.00176001
1.99301
-0.00482606
2.09246
0.00706097
2.17674
0.00276672
2.2392
0.000503438
2.27165
0.00325349
2.29668
0.00425355
2.32913
0.00942773
2.354
0.0040186
2.3549
-0.000512878
2.33902
0.00321688
2.3162
-0.00264258
2.29899
-0.00966101
2.30245
0.0158728
2.32202
-0.00323737
2.33698
-0.016054
2.34424
-0.0153488
2.34718
-0.0214231
2.35226
-0.03928
2.35292
-0.0566286
2.30868
-0.0705121
2.15467
-0.0750776
1.96349
-0.0631079
1.81024
-0.0475338
1.69414
-0.0386182
1.60981
-0.0309643
1.55402
-0.024975
1.52004
-0.016919
1.50173
-0.00844296
1.49614
-0.00172709
1.49214
0.00504551
1.48793
0.0115688
1.49218
0.0160614
1.50682
0.0228926
1.50383
0.0363548
1.50034
0.0487767
1.48808
0.127561
1.47969
0.138865
1.45486
0.210192
0.257992
2.88981e-009
-7.17423e-010
1.97781e-008
-5.87275e-009
1.32311e-007
-3.33873e-008
7.82815e-007
-1.92859e-007
4.43655e-006
-9.4229e-007
2.25598e-005
-4.44966e-006
0.000107323
-1.8134e-005
0.000460576
-6.82202e-005
0.00181338
-0.000221387
0.00639619
-0.000609167
0.0200696
-0.00187882
0.0539003
-0.00404287
0.125571
-0.00713081
0.255486
-0.0106932
0.452617
-0.0147813
0.700676
-0.0145086
0.965385
-0.0103586
1.21541
-0.00560506
1.4353
-0.00350267
1.62082
-0.00261523
1.77411
0.00154932
1.9011
-0.00353329
1.99942
0.00551336
2.07454
0.00377648
2.14528
0.001772
2.18757
0.00366222
2.20375
0.00529021
2.22264
0.0085683
2.25141
0.00616416
2.26871
0.000834003
2.26494
0.00343176
2.24816
-0.0045832
2.23014
-0.00882228
2.22111
0.0153848
2.22757
-0.0084595
2.23976
-0.0138375
2.24875
-0.0171557
2.25179
-0.0213915
2.24907
-0.0366698
2.23733
-0.053717
2.17811
-0.0678749
1.99314
-0.0728426
1.80143
-0.0654975
1.66179
-0.0526351
1.55917
-0.0417671
1.48845
-0.0323628
1.44217
-0.0260655
1.41362
-0.0178536
1.39605
-0.00880627
1.38689
-0.000934922
1.38492
0.00545059
1.37995
0.0121054
1.37632
0.0203595
1.39466
0.0339667
1.38883
0.0450765
1.37511
0.0574354
1.38931
0.131063
1.3938
0.167845
1.38777
0.248403
0.323031
2.76844e-009
-8.50777e-010
1.89251e-008
-6.96067e-009
1.26729e-007
-3.95695e-008
7.50076e-007
-2.28924e-007
4.25855e-006
-1.12076e-006
2.16881e-005
-5.30992e-006
0.000103412
-2.17438e-005
0.00044478
-8.23123e-005
0.00175508
-0.000269793
0.00619914
-0.00074769
0.019516
-0.00232818
0.0525381
-0.00506911
0.122616
-0.0090781
0.249826
-0.0137876
0.443096
-0.0193366
0.686367
-0.0192869
0.945591
-0.0141947
1.19006
-0.00817303
1.40464
-0.00509162
1.58537
-0.00339591
1.73464
0.000530354
1.85747
-0.00168165
1.95268
0.00456839
2.02572
0.00516842
2.09304
0.00373018
2.13249
0.00479967
2.14772
0.00510956
2.1663
0.00795211
2.19304
0.00897184
2.2076
0.00357535
2.20255
0.00577169
2.184
-0.00106153
2.16389
-0.0088569
2.15277
0.0159903
2.15738
-0.0118111
2.16787
-0.00978608
2.17461
-0.0155939
2.17485
-0.017899
2.17083
-0.0324129
2.15797
-0.048735
2.09899
-0.061886
1.92261
-0.0706408
1.74168
-0.0680524
1.60918
-0.0585251
1.51412
-0.046572
1.4499
-0.0364931
1.40747
-0.0292331
1.38108
-0.0212492
1.3655
-0.0124007
1.35708
-0.0042665
1.35603
0.0028222
1.35336
0.0101808
1.35387
0.0195382
1.36984
0.0344755
1.36832
0.0486317
1.36063
0.0611364
1.36868
0.138766
1.37024
0.199445
1.3625
0.287654
0.379725
2.63201e-009
-9.62411e-010
1.7894e-008
-7.86097e-009
1.19495e-007
-4.45325e-008
7.03831e-007
-2.57217e-007
3.98542e-006
-1.25521e-006
2.02196e-005
-5.93571e-006
9.61954e-005
-2.423e-005
0.00041273
-9.15179e-005
0.00162745
-0.000299718
0.00574901
-0.000826383
0.0181105
-0.00256952
0.048813
-0.00555777
0.114177
-0.00996404
0.233223
-0.0148749
0.415021
-0.021025
0.645227
-0.0208995
0.892301
-0.0152881
1.12679
-0.00847859
1.33372
-0.00533929
1.50858
-0.00337431
1.65355
0.000267975
1.77344
-0.00107881
1.86614
0.00374244
1.93949
0.00724696
2.00613
0.00439256
2.04337
0.00505063
2.06038
0.00655793
2.08361
0.00912803
2.11221
0.00973228
2.12542
0.0038806
2.11894
0.00608554
2.1022
-0.00230472
2.08542
-0.0071703
2.07854
0.0133574
2.09106
-0.0102628
2.10292
-0.00915219
2.10833
-0.0144604
2.10974
-0.0160748
2.10621
-0.0280868
2.09157
-0.0415767
2.0348
-0.0558814
1.86455
-0.069278
1.67604
-0.0657383
1.53671
-0.0575805
1.44103
-0.0467509
1.37697
-0.0383409
1.33631
-0.0298062
1.31051
-0.0209903
1.2939
-0.0120793
1.28451
-0.00484043
1.2818
0.00199065
1.28145
0.00999566
1.28246
0.0195922
1.29339
0.0328727
1.29453
0.0504801
1.28758
0.0696024
1.29717
0.142707
1.30099
0.2189
1.30859
0.306109
0.418838
2.51499e-009
-1.06377e-009
1.70679e-008
-8.68727e-009
1.14065e-007
-4.918e-008
6.71732e-007
-2.84295e-007
3.80955e-006
-1.38868e-006
1.93501e-005
-6.58116e-006
9.22579e-005
-2.69501e-005
0.000396682
-0.000102251
0.00156779
-0.000337264
0.00554759
-0.000935654
0.0175355
-0.00292626
0.0473913
-0.0063823
0.111097
-0.0115919
0.227332
-0.0174439
0.405182
-0.0249744
0.630642
-0.0251604
0.872457
-0.018879
1.10158
-0.0108379
1.30336
-0.00684684
1.47365
-0.00415367
1.61476
-0.000791561
1.73077
0.000493882
1.82102
0.00275634
1.89175
0.00963285
1.95532
0.00561666
1.99109
0.00531002
2.00688
0.00777369
2.02814
0.0100272
2.05487
0.0110165
2.06693
0.00584946
2.06015
0.0081438
2.042
0.000103524
2.0232
-0.00906724
2.01441
0.0130621
2.02459
-0.0106038
2.0374
-0.00701788
2.044
-0.0122347
2.04568
-0.0129779
2.04493
-0.0256227
2.03831
-0.0396242
1.99609
-0.0526301
1.85143
-0.065727
1.66547
-0.0659938
1.52995
-0.0611446
1.43527
-0.0516573
1.36908
-0.0412672
1.32597
-0.0315159
1.29943
-0.0232759
1.28285
-0.0141813
1.27234
-0.00576226
1.26724
0.00139297
1.26688
0.00833382
1.27149
0.0181345
1.27364
0.0302224
1.27943
0.0496102
1.28276
0.0773358
1.27998
0.153049
1.27932
0.23879
1.28463
0.330054
0.45566
2.39384e-009
-1.14946e-009
1.61743e-008
-9.37864e-009
1.079e-007
-5.29702e-008
6.32961e-007
-3.05909e-007
3.58288e-006
-1.4914e-006
1.81418e-005
-7.06161e-006
8.6343e-005
-2.88741e-005
0.000370461
-0.000109477
0.00146302
-0.000361218
0.00517674
-0.00100143
0.01637
-0.00312518
0.0442767
-0.00679506
0.103965
-0.0123917
0.213168
-0.0184349
0.380945
-0.0265757
0.594662
-0.0267902
0.825265
-0.0200691
1.04509
-0.011328
1.23972
-0.00723566
1.4045
-0.004282
1.54143
-0.00151983
1.65468
0.000835562
1.74251
0.00204351
1.81234
0.00989517
1.87554
0.00434432
1.91068
0.00528888
1.92792
0.00702076
1.95126
0.0108637
1.97838
0.0121025
1.99034
0.00613804
1.98377
0.00806123
1.9679
-0.00236121
1.95205
-0.0062405
1.94572
0.00922132
1.96074
-0.0095842
1.97386
-0.00762191
1.98033
-0.0117392
1.98362
-0.0124483
1.98339
-0.0238028
1.97546
-0.0371898
1.93258
-0.0508138
1.78898
-0.0638378
1.6059
-0.0656436
1.46906
-0.0612377
1.37306
-0.0517554
1.31066
-0.0421171
1.26855
-0.0318416
1.24093
-0.0215631
1.22333
-0.0122764
1.21298
-0.00445508
1.20722
0.0025235
1.20401
0.0103022
1.20508
0.01975
1.20454
0.0327117
1.1992
0.0506389
1.21743
0.078367
1.2213
0.1507
1.22958
0.251376
1.23977
0.348726
0.483039
2.28447e-009
-1.22563e-009
1.5402e-008
-9.99837e-009
1.02809e-007
-5.64232e-008
6.02716e-007
-3.25982e-007
3.41605e-006
-1.59002e-006
1.73105e-005
-7.5399e-006
8.25443e-005
-3.09005e-005
0.000354833
-0.000117571
0.00140443
-0.00038998
0.00497844
-0.00108741
0.0157956
-0.00340482
0.0428444
-0.00744747
0.100853
-0.0137568
0.2072
-0.0205702
0.370994
-0.029972
0.580017
-0.0306124
0.805587
-0.0234183
1.02031
-0.0135063
1.20998
-0.00863709
1.37035
-0.00494462
1.50357
-0.00227024
1.61311
0.00150088
1.69879
0.000567115
1.76646
0.0113346
1.82658
0.00541337
1.86005
0.00641034
1.87628
0.00768338
1.89817
0.0119508
1.92385
0.0131057
1.93487
0.00739221
1.92788
0.00946182
1.9108
-0.000417991
1.89311
-0.00916557
1.88508
0.00684241
1.89815
-0.0066619
1.91267
-0.00670307
1.92055
-0.0109553
1.92401
-0.0114524
1.92462
-0.02314
1.92064
-0.0379028
1.88522
-0.0513819
1.75712
-0.063711
1.58055
-0.0672234
1.4491
-0.0642583
1.35391
-0.0546656
1.29356
-0.0446535
1.25204
-0.0337026
1.22634
-0.0230616
1.20942
-0.0121783
1.1979
-0.00298453
1.19014
0.00409071
1.187
0.0107355
1.18978
0.0203158
1.1883
0.0344044
1.18293
0.0521678
1.19953
0.0828275
1.2022
0.142286
1.20817
0.26903
1.21413
0.371614
0.508014
2.17604e-009
-1.29045e-009
1.46173e-008
-1.05193e-008
9.74711e-008
-5.92629e-008
5.69629e-007
-3.42174e-007
3.22451e-006
-1.66708e-006
1.62988e-005
-7.90231e-006
7.76182e-005
-3.2367e-005
0.000333076
-0.000123175
0.00131738
-0.000408868
0.00466961
-0.00114197
0.0148206
-0.00356774
0.0402224
-0.0077895
0.0947939
-0.0144751
0.195066
-0.0214556
0.35001
-0.0314848
0.548492
-0.032242
0.763737
-0.0246948
0.969735
-0.0141997
1.15271
-0.00912684
1.30795
-0.00507651
1.43719
-0.0029286
1.54411
0.00224582
1.62735
-2.53383e-005
1.69343
0.0130506
1.75363
0.00549961
1.78737
0.00548126
1.80417
0.00786089
1.8265
0.0127563
1.85233
0.0140783
1.86409
0.00743524
1.85812
0.00920247
1.84311
-0.00299997
1.82755
-0.00575983
1.82104
0.00289692
1.83646
-0.00655533
1.85048
-0.00822758
1.85765
-0.0119944
1.86154
-0.012954
1.8618
-0.0239826
1.85524
-0.0378325
1.81853
-0.0515161
1.69167
-0.0637989
1.51885
-0.0681572
1.38843
-0.0644226
1.29368
-0.0553337
1.23508
-0.0456596
1.19393
-0.0333141
1.16812
-0.0218684
1.15166
-0.00992853
1.14165
-0.00163799
1.13498
0.00557605
1.13183
0.0127462
1.13128
0.0219525
1.13062
0.0362334
1.12569
0.0540081
1.14217
0.0841586
1.14609
0.132896
1.16279
0.271415
1.17465
0.386346
0.527035
2.07558e-009
-1.34715e-009
1.39099e-008
-1.09765e-008
9.28002e-008
-6.17849e-008
5.41811e-007
-3.56784e-007
3.07023e-006
-1.73873e-006
1.55253e-005
-8.25073e-006
7.40549e-005
-3.38543e-005
0.000318291
-0.000129203
0.00126148
-0.000430581
0.00447958
-0.00120935
0.0142624
-0.00378596
0.0388172
-0.00830227
0.0917228
-0.0156125
0.189151
-0.0232123
0.340123
-0.0344061
0.533974
-0.03567
0.74438
-0.027815
0.94558
-0.0162954
1.12381
-0.0104228
1.27478
-0.00564278
1.40045
-0.00356905
1.50394
0.00229146
1.58523
-0.00134237
1.64912
0.014388
1.70653
0.00583775
1.73898
0.00539995
1.75466
0.0083811
1.77538
0.0135846
1.80004
0.01489
1.81143
0.00822067
1.80536
0.010253
1.78976
-0.000929718
1.77306
-0.00489453
1.76454
0.00239025
1.77781
-0.00221357
1.79276
-0.00721701
1.80083
-0.01229
1.80477
-0.0144071
1.80486
-0.0251324
1.80039
-0.0396718
1.7681
-0.0534229
1.64934
-0.06451
1.48307
-0.0690728
1.35871
-0.066621
1.26968
-0.0588986
1.21193
-0.0487177
1.17255
-0.0351297
1.14728
-0.0227324
1.13153
-0.0105309
1.12079
-0.000465247
1.11545
0.00606369
1.11489
0.012448
1.11387
0.0209035
1.11313
0.0352813
1.11124
0.0543186
1.12372
0.0858326
1.1232
0.131315
1.13748
0.268346
1.14723
0.399184
0.545493
1.97819e-009
-1.39573e-009
1.32153e-008
-1.13596e-008
8.81245e-008
-6.38596e-008
5.13184e-007
-3.68591e-007
2.90593e-006
-1.79512e-006
1.46651e-005
-8.51737e-006
6.98897e-005
-3.49484e-005
0.000299981
-0.000133472
0.00118824
-0.000445179
0.00421941
-0.00125426
0.0134389
-0.00391871
0.036592
-0.00858596
0.0865429
-0.0162429
0.178701
-0.0239798
0.321884
-0.0358401
0.506283
-0.0372667
0.707211
-0.0291598
0.900222
-0.0170887
1.07217
-0.0109974
1.21833
-0.00572082
1.34019
-0.00403084
1.44117
0.00291564
1.52008
-0.0021429
1.58215
0.0164917
1.63954
0.00713983
1.6724
0.00620357
1.68837
0.00894282
1.70905
0.0146218
1.73376
0.0158896
1.7459
0.00859208
1.74101
0.00995709
1.7272
-0.00263804
1.71214
-0.00491731
1.70525
-4.82252e-005
1.71971
0.000183535
1.73433
-0.00764709
1.74227
-0.01375
1.74661
-0.0174508
1.74766
-0.0272
1.74208
-0.0403612
1.70821
-0.0542115
1.59136
-0.0667498
1.42862
-0.0702306
1.30593
-0.0668602
1.21886
-0.0598306
1.16129
-0.0496227
1.12267
-0.035648
1.09713
-0.0219956
1.08103
-0.00946282
1.07202
0.000240326
1.06617
0.00852735
1.06229
0.0146106
1.05958
0.0214711
1.06041
0.0331694
1.06572
0.0524237
1.07338
0.0848222
1.07396
0.127825
1.09338
0.254833
1.10931
0.402754
0.553613
1.88682e-009
-1.43769e-009
1.25746e-008
-1.16885e-008
8.38923e-008
-6.56546e-008
4.87964e-007
-3.78933e-007
2.76549e-006
-1.84589e-006
1.39577e-005
-8.76486e-006
6.66087e-005
-3.60175e-005
0.000286264
-0.000137887
0.00113596
-0.000461276
0.00404078
-0.00130706
0.0129074
-0.00408757
0.0352407
-0.00899112
0.0835679
-0.0171782
0.172936
-0.0254133
0.312203
-0.0383656
0.492052
-0.04032
0.68831
-0.0320544
0.876795
-0.0190983
1.04424
-0.0122644
1.18633
-0.00620808
1.30475
-0.00487639
1.4025
0.00417135
1.47965
-0.00373025
1.53974
0.017875
1.59453
0.00964274
1.6263
0.00780224
1.64118
0.00955596
1.66012
0.0152177
1.68376
0.0167637
1.69588
0.00925781
1.6911
0.0107234
1.67694
-0.000664081
1.66112
-0.00293753
1.65188
-0.0027444
1.66398
0.000369916
1.68007
-0.00519267
1.68966
-0.0144612
1.69463
-0.0200479
1.69638
-0.0289303
1.6948
-0.0433147
1.66929
-0.0573072
1.5668
-0.0689488
1.4066
-0.0719962
1.28532
-0.0695728
1.20124
-0.0641907
1.14273
-0.0515284
1.10427
-0.0370987
1.07966
-0.023208
1.06364
-0.00952354
1.05127
0.00237058
1.04523
0.00859327
1.04534
0.0142253
1.04415
0.0212064
1.04392
0.0326744
1.05005
0.0533097
1.05204
0.0840022
1.05053
0.126977
1.06612
0.243326
1.08009
0.398106
0.555653
1.79923e-009
-1.47287e-009
1.19571e-008
-1.19604e-008
7.97658e-008
-6.71172e-008
4.62949e-007
-3.87215e-007
2.62289e-006
-1.88572e-006
1.32169e-005
-8.95408e-006
6.304e-005
-3.68095e-005
0.000270651
-0.000141058
0.00107358
-0.000472277
0.00381911
-0.00134389
0.0122046
-0.00419276
0.0333359
-0.00922785
0.079108
-0.0177213
0.163884
-0.0260943
0.29628
-0.0397116
0.467655
-0.0418517
0.655235
-0.0334413
0.836058
-0.0199734
0.997586
-0.0129296
1.13513
-0.00642451
1.25
-0.00550164
1.34528
0.00538357
1.4201
-0.00482257
1.47843
0.0191278
1.53299
0.00915147
1.56498
0.00664954
1.5801
0.00978672
1.59902
0.016123
1.62258
0.0177515
1.63513
0.00989801
1.63139
0.0105376
1.61891
-0.000879886
1.6044
-0.00316629
1.59667
-0.000904488
1.60938
0.00367745
1.62526
-0.00409361
1.63475
-0.0157779
1.64001
-0.023169
1.64306
-0.0318636
1.64158
-0.0457624
1.61801
-0.0597266
1.5248
-0.0727637
1.36996
-0.0750927
1.24831
-0.0712698
1.16097
-0.0645629
1.10092
-0.052046
1.0616
-0.0371643
1.03659
-0.0228502
1.02145
-0.00947263
1.01133
0.00288402
1.00283
0.0118856
0.99864
0.0176071
0.997011
0.0233558
0.997015
0.0336349
1.00174
0.0526441
1.00559
0.079743
1.00811
0.123871
1.02557
0.232577
1.04265
0.385148
0.554066
1.71656e-009
-1.5023e-009
1.13805e-008
-1.21873e-008
7.59573e-008
-6.83446e-008
4.40272e-007
-3.94217e-007
2.49623e-006
-1.9203e-006
1.2577e-005
-9.12306e-006
6.00549e-005
-3.75544e-005
0.000258092
-0.000144211
0.00102536
-0.000483937
0.00365347
-0.00138529
0.0117061
-0.00431971
0.0320559
-0.00954743
0.0762663
-0.0184839
0.158341
-0.0272794
0.286913
-0.0418864
0.453835
-0.0445537
0.636899
-0.0361163
0.813434
-0.0219064
0.970706
-0.0141745
1.10439
-0.0069426
1.21598
-0.00655404
1.30816
0.00675302
1.38127
-0.00670959
1.43794
0.0201629
1.49005
0.0100078
1.52077
0.00807873
1.53508
0.010375
1.55271
0.0163931
1.5753
0.0190268
1.58763
0.0110707
1.58385
0.0113925
1.57107
0.000954687
1.55648
-0.0016673
1.54766
-0.00301866
1.55872
0.0040422
1.57479
-0.00124654
1.58548
-0.0169251
1.59124
-0.0259079
1.59469
-0.0348829
1.59646
-0.0503402
1.58095
-0.0651996
1.50134
-0.0768676
1.35169
-0.0780684
1.23212
-0.0750943
1.14534
-0.0682796
1.08446
-0.0540865
1.0447
-0.0385251
1.01874
-0.0228357
1.00223
-0.00848347
0.991619
0.00504878
0.984949
0.0138198
0.981688
0.0198959
0.980081
0.0261787
0.979084
0.0356686
0.981684
0.0528449
0.982383
0.0794515
0.982443
0.123951
0.999649
0.22444
1.01383
0.371786
0.549336
1.63776e-009
-1.52645e-009
1.08301e-008
-1.23696e-008
7.22973e-008
-6.9321e-008
4.1826e-007
-3.9968e-007
2.37136e-006
-1.94692e-006
1.19324e-005
-9.25001e-006
5.69635e-005
-3.81026e-005
0.000244626
-0.00014648
0.000971643
-0.000491966
0.0034626
-0.00141526
0.0111005
-0.00439897
0.0304109
-0.00974419
0.0723987
-0.0189469
0.15045
-0.0279105
0.272942
-0.0431177
0.432266
-0.0460082
0.607403
-0.0375326
0.776793
-0.0228447
0.92848
-0.0148757
1.05786
-0.0070895
1.16612
-0.00730396
1.25588
0.0081565
1.32675
-0.00790502
1.38176
0.0217167
1.43343
0.011258
1.46418
0.00681931
1.47873
0.0105385
1.49657
0.0170735
1.51892
0.0200973
1.53122
0.0119356
1.52811
0.0113611
1.51673
0.00151562
1.50312
-0.00233905
1.49564
-0.00489422
1.50762
0.00513039
1.52411
-0.00174885
1.5342
-0.0185953
1.54013
-0.0291646
1.5447
-0.0390727
1.54666
-0.0549627
1.53249
-0.0698624
1.46232
-0.0826308
1.31961
-0.0827459
1.19917
-0.0772513
1.11023
-0.0701243
1.04811
-0.054859
1.00779
-0.0387235
0.981783
-0.0219755
0.965679
-0.00717853
0.955033
0.00780707
0.946023
0.0177314
0.94046
0.0228492
0.939053
0.0287001
0.937557
0.0376881
0.941107
0.0525655
0.942234
0.0796718
0.944889
0.122649
0.963607
0.217361
0.979633
0.35495
0.539466
1.56318e-009
-1.54617e-009
1.03128e-008
-1.25151e-008
6.88816e-008
-7.01046e-008
3.97958e-007
-4.04067e-007
2.25773e-006
-1.96896e-006
1.13572e-005
-9.35788e-006
5.42679e-005
-3.85963e-005
0.000233225
-0.000148644
0.000927592
-0.000500155
0.00331047
-0.00144758
0.0106378
-0.0044907
0.0292118
-0.00999644
0.0697135
-0.0195634
0.145176
-0.0289129
0.263968
-0.0449686
0.418954
-0.0483908
0.589719
-0.0400056
0.755027
-0.0246932
0.902706
-0.0160705
1.02844
-0.00754117
1.1336
-0.00813564
1.22047
0.00780568
1.28961
-0.00951339
1.34317
0.0228243
1.39257
0.0125026
1.42187
0.0064054
1.43577
0.0111523
1.45276
0.0174551
1.47431
0.0212731
1.48621
0.0130708
1.48302
0.0118192
1.47133
0.00224247
1.45788
-0.00184448
1.45012
-0.00717939
1.4611
0.00562725
1.47705
-0.000143211
1.48804
-0.0206237
1.49421
-0.0322524
1.49893
-0.0430799
1.50316
-0.060931
1.4953
-0.0770908
1.43665
-0.0887087
1.29953
-0.087109
1.18141
-0.081928
1.09256
-0.073229
1.03001
-0.0566129
0.989975
-0.0398882
0.964421
-0.0219293
0.945241
-0.00381376
0.935465
0.00895841
0.929477
0.0192864
0.925017
0.0253952
0.92173
0.031053
0.919741
0.0390664
0.922061
0.052737
0.923012
0.0811301
0.92236
0.124576
0.938665
0.214347
0.952522
0.341732
0.530167
1.49228e-009
-1.56138e-009
9.82134e-009
-1.26264e-008
6.56241e-008
-7.06968e-008
3.78491e-007
-4.07291e-007
2.14767e-006
-1.98513e-006
1.0792e-005
-9.43505e-006
5.1566e-005
-3.89491e-005
0.000221499
-0.000150174
0.000880892
-0.000505764
0.00314456
-0.00147161
0.0101111
-0.00454751
0.0277792
-0.0101601
0.0663354
-0.0199527
0.138254
-0.0295109
0.251648
-0.0460683
0.399814
-0.0497686
0.56335
-0.041441
0.72202
-0.025665
0.864428
-0.0167651
0.986088
-0.00770238
1.08807
-0.00892314
1.17262
0.00837053
1.23967
-0.0110078
1.29162
0.0242461
1.34044
0.0135556
1.36975
0.0071281
1.38382
0.0112557
1.40092
0.0180587
1.42207
0.0222033
1.43385
0.0137626
1.43112
0.0115416
1.42066
0.00294302
1.40806
-0.00294633
1.40135
-0.00912086
1.41285
0.00658412
1.42955
-0.00158658
1.43987
-0.0226774
1.44615
-0.0356271
1.45168
-0.0477437
1.45564
-0.0663632
1.44855
-0.0836785
1.39664
-0.0961948
1.26699
-0.0937501
1.14962
-0.0851943
1.05982
-0.07403
0.996493
-0.0565821
0.955848
-0.0391943
0.929919
-0.0206341
0.914127
-0.00311921
0.90314
0.0108477
0.894533
0.0221838
0.889722
0.0282972
0.885871
0.0332793
0.883367
0.0406807
0.884983
0.0538904
0.889463
0.0800304
0.891224
0.125544
0.906
0.210813
0.921401
0.331307
0.522962
1.42508e-009
-1.57315e-009
9.35795e-009
-1.2708e-008
6.25648e-008
-7.11348e-008
3.60351e-007
-4.09634e-007
2.04597e-006
-1.99745e-006
1.02766e-005
-9.49538e-006
4.91423e-005
-3.92483e-005
0.000211205
-0.000151561
0.000840899
-0.000511258
0.00300576
-0.00149655
0.00968506
-0.00461123
0.0266653
-0.0103595
0.0638193
-0.0204464
0.133277
-0.0303739
0.243117
-0.0476278
0.387079
-0.0518672
0.546382
-0.043728
0.70115
-0.0274142
0.839787
-0.0179105
0.958007
-0.00811035
1.057
-0.00960826
1.13884
0.00791994
1.20419
-0.0126397
1.25484
0.025179
1.30162
0.0150425
1.32945
0.00882777
1.34293
0.0116479
1.35937
0.0183493
1.37987
0.0231275
1.39122
0.0146295
1.38847
0.0116644
1.3777
0.00440443
1.3652
-0.00232826
1.35848
-0.0115996
1.36931
0.00799756
1.38496
-0.000239147
1.39595
-0.025062
1.40208
-0.0386522
1.40722
-0.0517928
1.41219
-0.0723879
1.40757
-0.0910805
1.36162
-0.104219
1.23831
-0.101338
1.12451
-0.0898035
1.03621
-0.0748988
0.974715
-0.0573849
0.935353
-0.0398642
0.910779
-0.0207713
0.893161
-0.00106982
0.882371
0.0117527
0.875376
0.0228385
0.870978
0.0301669
0.866939
0.035262
0.863806
0.0425568
0.864862
0.0554612
0.868111
0.0809239
0.869302
0.127805
0.881514
0.207788
0.895498
0.326865
0.519776
1.36126e-009
-1.58179e-009
8.91859e-009
-1.27622e-008
5.96581e-008
-7.14262e-008
3.43071e-007
-4.11091e-007
1.94848e-006
-2.00541e-006
9.77798e-006
-9.53304e-006
4.67641e-005
-3.94456e-005
0.000200912
-0.000152489
0.00079997
-0.000514921
0.00286037
-0.00151538
0.00922326
-0.00465006
0.025408
-0.0104942
0.0608482
-0.0207703
0.127169
-0.0309389
0.232198
-0.048601
0.370028
-0.053172
0.522746
-0.0451608
0.67137
-0.0284079
0.80504
-0.0185963
0.919415
-0.00828494
1.01542
-0.0103746
1.09508
0.0100183
1.15843
-0.0140141
1.20753
0.0262597
1.25359
0.0155459
1.28133
0.00734833
1.29498
0.0116399
1.31151
0.0189519
1.33151
0.0239281
1.34262
0.0152893
1.34016
0.0112987
1.33045
0.00470398
1.31876
-0.00347373
1.3129
-0.014553
1.32404
0.00921088
1.34034
-0.00191946
1.35013
-0.0269042
1.35586
-0.0415704
1.3611
-0.0559891
1.36512
-0.0773822
1.36038
-0.0976006
1.31899
-0.113348
1.20248
-0.111051
1.09055
-0.09395
1.00231
-0.0742276
0.940796
-0.0570059
0.901416
-0.039391
0.876993
-0.0200008
0.86311
-0.00126831
0.850987
0.014406
0.842956
0.0247982
0.83817
0.0318046
0.834593
0.0372842
0.831251
0.0448318
0.831564
0.0574025
0.834944
0.0814067
0.839414
0.126337
0.851523
0.203279
0.866562
0.322679
0.516467
1.30073e-009
-1.58719e-009
8.50353e-009
-1.27935e-008
5.69178e-008
-7.15955e-008
3.26868e-007
-4.11841e-007
1.85752e-006
-2.01023e-006
9.31696e-006
-9.55647e-006
4.45896e-005
-3.95944e-005
0.000191647
-0.000153267
0.000763802
-0.000518337
0.00273425
-0.0015342
0.00883299
-0.00469255
0.0243795
-0.0106499
0.0585055
-0.021163
0.122503
-0.0316865
0.224139
-0.0499107
0.357914
-0.0550227
0.506538
-0.0472641
0.651419
-0.0300533
0.781534
-0.0196892
0.89265
-0.00860156
0.985813
-0.0110999
1.06287
0.0131914
1.12457
-0.0156831
1.1725
0.0270514
1.21672
0.0162929
1.24301
0.00859298
1.25611
0.0117376
1.27213
0.0192758
1.2916
0.0247013
1.30226
0.0161986
1.29978
0.0111587
1.28977
0.0057578
1.27812
-0.00355544
1.27241
-0.0169532
1.28279
0.0112411
1.29741
4.56715e-005
1.3075
-0.0288421
1.31265
-0.0437641
1.3169
-0.0590887
1.3214
-0.0824382
1.31825
-0.103911
1.28217
-0.121978
1.17379
-0.123393
1.06363
-0.0987305
0.977052
-0.0748887
0.916772
-0.0583145
0.878614
-0.0406573
0.855218
-0.0210938
0.839485
-0.00069649
0.829579
0.0147147
0.823252
0.025297
0.818205
0.0336273
0.814363
0.0398535
0.810615
0.047126
0.80991
0.0589938
0.812486
0.0817483
0.816127
0.125097
0.827261
0.199519
0.840889
0.316403
0.509769
1.24326e-009
-1.5903e-009
8.1103e-009
-1.28036e-008
5.43185e-008
-7.16526e-008
3.11485e-007
-4.11914e-007
1.77082e-006
-2.01179e-006
8.87496e-006
-9.56302e-006
4.24846e-005
-3.96689e-005
0.000182555
-0.00015371
0.000727687
-0.000520449
0.00260597
-0.00154848
0.00842517
-0.00471772
0.0232682
-0.0107581
0.0558755
-0.0214298
0.117081
-0.0322128
0.214413
-0.0507743
0.342665
-0.0562544
0.485296
-0.0486707
0.624504
-0.031069
0.749954
-0.0203863
0.857452
-0.00885447
0.94783
-0.0118164
1.02277
0.0125681
1.0826
-0.0171275
1.12907
0.0281458
1.17242
0.0164786
1.19852
0.0069437
1.21183
0.0115862
1.22786
0.0198942
1.24674
0.0255419
1.25719
0.0170395
1.25502
0.0108032
1.24598
0.00627641
1.23505
-0.00452279
1.22959
-0.0188194
1.23933
0.0118419
1.25446
0.000512093
1.26362
-0.0296545
1.26865
-0.0454255
1.2728
-0.0619211
1.27581
-0.0854519
1.27444
-0.109275
1.24735
-0.130557
1.15324
-0.1376
1.03733
-0.104329
0.949801
-0.0776457
0.887628
-0.0600287
0.847694
-0.0414716
0.823094
-0.0213441
0.810319
-0.00254207
0.80027
0.015652
0.792826
0.0273758
0.78729
0.0359274
0.784757
0.0423484
0.781231
0.0490489
0.780331
0.0601895
0.781949
0.0814364
0.786449
0.120948
0.799324
0.194275
0.813043
0.303052
0.500841
1.18872e-009
-1.59134e-009
7.73834e-009
-1.27949e-008
5.18622e-008
-7.16147e-008
2.97003e-007
-4.11429e-007
1.68945e-006
-2.01085e-006
8.46258e-006
-9.55792e-006
4.05349e-005
-3.9702e-005
0.000174226
-0.000154011
0.000695049
-0.000522264
0.00249167
-0.00156222
0.00806896
-0.00474468
0.0223226
-0.0108776
0.0537048
-0.0217396
0.112728
-0.0328603
0.206838
-0.0518767
0.331197
-0.0578863
0.469874
-0.0505923
0.605482
-0.0326144
0.727566
-0.0214305
0.831975
-0.00913773
0.919671
-0.0125941
0.992077
0.0118337
1.05027
-0.0187559
1.09588
0.0292071
1.13743
0.0167643
1.16188
0.00626135
1.17484
0.0117286
1.19064
0.0205102
1.20901
0.0262327
1.21913
0.0180458
1.21702
0.0105048
1.20773
0.00706706
1.19657
-0.0044344
1.1902
-0.0205438
1.1976
0.0118346
1.21098
0.00285034
1.22236
-0.03031
1.22868
-0.0459
1.23276
-0.0631144
1.23748
-0.0892572
1.23964
-0.113613
1.22258
-0.134169
1.14779
-0.145322
1.02782
-0.116345
0.936264
-0.0845155
0.870559
-0.0640503
0.827769
-0.0438411
0.802064
-0.0232243
0.786029
-0.00349274
0.7759
0.0156406
0.76967
0.027938
0.764709
0.037272
0.762307
0.0448993
0.758982
0.0510031
0.758017
0.0610596
0.758733
0.0803626
0.760903
0.117867
0.774896
0.187655
0.787589
0.285487
0.487324
1.13692e-009
-1.59049e-009
7.38596e-009
-1.27702e-008
4.95333e-008
-7.14915e-008
2.83274e-007
-4.10427e-007
1.6121e-006
-2.00747e-006
8.06927e-006
-9.54022e-006
3.86632e-005
-3.96805e-005
0.000166153
-0.000154066
0.000663004
-0.000523148
0.00237781
-0.00157256
0.00770661
-0.00475983
0.0213344
-0.010962
0.051363
-0.021957
0.10789
-0.0333438
0.198135
-0.0526452
0.317508
-0.0590428
0.45073
-0.0519597
0.581115
-0.0336513
0.698836
-0.022155
0.799826
-0.00948398
0.884991
-0.0131084
0.955033
0.0136725
1.01211
-0.0192293
1.05656
0.0301056
1.09419
0.01657
1.12143
0.00677287
1.13641
0.0116934
1.14929
0.0210696
1.16461
0.0269013
1.17574
0.0187414
1.17632
0.0102104
1.16937
0.00702895
1.15906
-0.00479059
1.15081
-0.021346
1.1523
0.00942515
1.16368
0.00431082
1.17658
-0.0294231
1.18509
-0.0454696
1.19006
-0.0635539
1.19263
-0.0901342
1.19405
-0.115551
1.18454
-0.137328
1.13102
-0.148136
1.02028
-0.126687
0.924982
-0.0920045
0.853111
-0.067499
0.804753
-0.0452594
0.774695
-0.0237973
0.758889
-0.0055723
0.748608
0.0144597
0.741703
0.0287047
0.736158
0.038623
0.733587
0.0466532
0.731663
0.0527721
0.730822
0.0616983
0.730748
0.0789398
0.733407
0.113431
0.748253
0.177089
0.760251
0.267187
0.457609
1.08773e-009
-1.58785e-009
7.05231e-009
-1.27311e-008
4.73288e-008
-7.1295e-008
2.70316e-007
-4.08993e-007
1.53922e-006