/*--------------------------------*- C++ -*----------------------------------*\
| =========                 |                                                 |
| \\      /  F ield         | OpenFOAM: The Open Source CFD Toolbox           |
|  \\    /   O peration     | Version:  5.x                                   |
|   \\  /    A nd           | Web:      www.OpenFOAM.org                      |
|    \\/     M anipulation  |                                                 |
\*---------------------------------------------------------------------------*/
/*   Windows 32 and 64 bit porting by blueCAPE: http://www.bluecape.com.pt   *\
|  Based on Windows porting (2.0.x v4) by Symscape: http://www.symscape.com   |
\*---------------------------------------------------------------------------*/
FoamFile
{
    version     2.0;
    format      ascii;
    class       volScalarField;
    location    "0.005";
    object      T;
}
// * * * * * * * * * * * * * * * * * * * * * * * * * * * * * * * * * * * * * //

dimensions      [0 0 0 1 0 0 0];

internalField   nonuniform List<scalar> 
10000
(
348.432
348.432
348.432
348.432
348.432
348.432
348.431
348.428
348.415
348.368
348.211
347.782
346.767
344.72
341.167
335.979
329.495
322.313
315.069
307.889
301.426
293.85
290.033
282.181
276.284
273.907
270.458
264.447
259.074
256.727
256.698
257.392
257.338
254.748
250.32
248.086
247.191
247.022
247.192
248.327
253.202
269.527
298.699
329.482
358.702
384.476
405.082
420.082
430.041
435.731
437.99
438.313
437.299
431.95
424.748
422.401
420.145
416.361
415.389
409.405
348.432
348.432
348.432
348.432
348.432
348.432
348.431
348.428
348.416
348.371
348.22
347.807
346.824
344.835
341.359
336.252
329.832
322.681
315.432
308.244
301.682
294.208
290.197
282.052
276.573
274.17
270.01
263.628
258.554
256.543
256.572
257.069
256.393
252.288
248.573
247.249
246.893
246.911
247.309
248.79
254.005
270.899
300.838
332.119
360.783
383.97
400.14
409.538
414.063
415.556
415.21
411.921
407.432
404.052
402.818
403.024
403.353
402.915
403.289
401.439
348.432
348.432
348.432
348.432
348.432
348.432
348.431
348.428
348.416
348.371
348.221
347.809
346.829
344.844
341.375
336.278
329.872
322.742
315.522
308.387
301.74
294.906
289.313
283.802
277.046
273.069
270.52
266.041
260.445
256.688
255.906
256.3
256.692
256.224
253.726
251.229
249.864
249.406
249.385
249.794
252.531
263.928
290.258
319.285
346.497
369.564
387.348
399.81
407.674
411.828
413.276
413.487
412.43
409.314
407.348
407.133
407.212
406.026
405.324
401.571
348.432
348.432
348.432
348.432
348.432
348.432
348.431
348.428
348.417
348.373
348.229
347.83
346.877
344.941
341.54
336.518
330.172
323.073
315.851
308.728
301.874
295.689
288.34
284.854
277.929
271.598
269.03
266.864
262.138
256.794
254.036
253.825
254.18
254.518
254.238
252.66
251.03
250.316
250.199
250.557
253.679
267.429
296.691
326.43
352.351
372.439
387.021
396.817
402.994
406.614
408.127
408.402
407.855
405.593
403.642
403.537
404.034
403.867
403.669
401.093
348.432
348.432
348.432
348.432
348.432
348.432
348.431
348.428
348.417
348.374
348.23
347.833
346.885
344.956
341.566
336.555
330.222
323.141
315.946
308.849
302.046
295.868
288.647
285.147
278.271
272.081
269.56
267.415
262.783
257.55
254.838
254.598
254.954
255.395
255.166
253.617
251.881
251.09
250.934
251.255
254.268
267.761
296.437
325.542
351.065
370.819
384.939
394.744
401.127
405.193
407.455
408.212
408.223
407.666
405.77
405.499
405.777
405.036
404.318
401.117
348.432
348.432
348.432
348.432
348.432
348.432
348.431
348.429
348.417
348.376
348.236
347.851
346.926
345.039
341.709
336.764
330.49
323.44
316.248
309.139
302.329
296.012
288.993
285.232
277.962
272.258
270.004
267.177
261.762
256.665
254.503
254.534
255.04
255.11
253.974
251.757
250.432
249.891
249.829
250.206
253.247
266.708
296.277
326.357
352.24
372.388
386.327
395.134
400.576
404.035
405.869
406.394
406.326
405.437
403.381
403.265
403.917
404.067
403.587
401.011
348.432
348.432
348.432
348.432
348.432
348.432
348.431
348.429
348.417
348.376
348.238
347.855
346.936
345.058
341.741
336.809
330.547
323.511
316.343
309.257
302.48
296.217
289.19
285.514
278.418
272.609
270.295
267.697
262.558
257.457
255.148
255.082
255.563
255.793
254.96
252.592
250.916
250.182
250.055
250.33
252.74
263.916
291.532
321.264
347.404
368.421
383.42
393.406
399.825
403.9
406.134
406.939
407.148
406.684
404.745
404.315
404.749
404.546
403.803
401.077
348.432
348.432
348.432
348.432
348.432
348.432
348.431
348.429
348.418
348.378
348.243
347.87
346.971
345.13
341.865
336.993
330.786
323.784
316.621
309.529
302.732
296.406
289.445
285.611
278.292
272.734
270.515
267.464
261.928
256.887
254.824
254.887
255.46
255.464
253.932
251.327
249.884
249.288
249.212
249.549
252.174
263.922
292.162
322.552
348.977
369.57
384.625
394.366
400.226
403.936
405.818
406.508
406.54
405.535
403.262
402.714
403.295
403.845
403.41
401.089
348.432
348.432
348.432
348.432
348.432
348.432
348.431
348.429
348.418
348.379
348.245
347.875
346.982
345.152
341.901
337.044
330.848
323.857
316.713
309.64
302.875
296.579
289.636
285.867
278.678
273.052
270.804
267.925
262.587
257.538
255.37
255.357
255.919
256.056
254.83
251.895
250.055
249.247
249.102
249.358
251.638
262.292
289.259
319.31
345.689
366.849
382.392
392.724
399.414
403.627
405.886
406.908
407.145
406.61
404.641
403.349
403.667
404.008
403.566
401.196
348.432
348.432
348.432
348.432
348.432
348.432
348.431
348.429
348.418
348.38
348.25
347.888
347.012
345.214
342.01
337.206
331.061
324.105
316.97
309.897
303.105
296.798
289.818
286.009
278.675
273.105
270.881
267.811
262.239
257.142
255.028
255.084
255.709
255.753
254.14
251.086
249.4
248.702
248.596
248.897
251.308
262.281
289.751
320.233
347.053
368.021
383.542
393.716
399.89
403.782
405.841
406.687
406.811
405.953
403.688
402.38
402.757
403.502
403.493
401.291
348.432
348.432
348.432
348.432
348.432
348.432
348.431
348.429
348.419
348.381
348.252
347.893
347.025
345.238
342.049
337.261
331.127
324.179
317.059
310
303.232
296.972
289.953
286.262
279.058
273.329
271.056
268.251
262.885
257.733
255.45
255.408
256.004
256.126
254.823
251.625
249.654
248.798
248.641
248.888
251.11
261.58
288.41
318.494
344.899
365.906
381.581
392.092
398.934
403.287
405.714
406.84
407.141
406.656
404.764
402.89
402.968
403.422
403.596
401.337
348.432
348.432
348.432
348.432
348.432
348.432
348.431
348.429
348.419
348.382
348.256
347.904
347.05
345.292
342.144
337.405
331.318
324.405
317.297
310.242
303.45
297.187
290.121
286.407
279.088
273.373
271.115
268.198
262.657
257.426
255.147
255.151
255.795
255.921
254.408
251.042
249.099
248.275
248.121
248.378
250.668
261.405
288.784
319.222
345.798
366.471
381.699
392.054
398.508
402.692
405.232
406.38
406.713
406.293
404.41
402.479
402.452
402.866
403.655
401.407
348.432
348.432
348.432
348.432
348.432
348.432
348.431
348.429
348.419
348.382
348.258
347.91
347.063
345.317
342.185
337.461
331.386
324.479
317.382
310.337
303.563
297.351
290.226
286.631
279.478
273.55
271.207
268.59
263.29
257.967
255.467
255.358
255.948
256.141
255.011
251.648
249.325
248.274
248.03
248.208
250.079
259.335
284.989
315.463
342.542
363.903
379.475
390.214
397.159
401.615
404.358
405.884
406.472
406.414
405.326
403.154
402.504
402.712
403.488
401.255
348.432
348.432
348.432
348.432
348.432
348.432
348.431
348.429
348.419
348.383
348.261
347.919
347.085
345.364
342.269
337.589
331.558
324.686
317.603
310.566
303.774
297.55
290.404
286.772
279.504
273.62
271.303
268.569
263.099
257.719
255.23
255.154
255.799
256.012
254.72
251.213
248.924
247.917
247.679
247.856
249.641
258.378
283.277
313.943
341.624
363.61
379.455
390.24
397.098
401.398
404.094
405.662
406.245
406.203
405.055
402.945
402.114
402.397
403.305
401.156
348.432
348.432
348.432
348.432
348.432
348.432
348.431
348.429
348.419
348.384
348.264
347.925
347.099
345.389
342.311
337.647
331.627
324.758
317.684
310.652
303.879
297.689
290.512
286.961
279.84
273.799
271.408
268.881
263.616
258.175
255.524
255.36
255.939
256.205
255.136
251.644
249.114
247.962
247.659
247.786
249.257
256.743
279.645
310.214
338.375
361.335
377.987
389.344
396.783
401.243
404.137
405.734
406.345
406.355
405.367
403.235
401.954
402.14
402.977
400.957
348.432
348.432
348.432
348.432
348.432
348.432
348.431
348.429
348.42
348.385
348.266
347.933
347.118
345.431
342.384
337.761
331.781
324.947
317.889
310.868
304.081
297.871
290.702
287.098
279.837
273.901
271.564
268.872
263.407
257.963
255.375
255.239
255.89
256.101
254.839
251.199
248.75
247.687
247.413
247.546
248.944
255.922
277.884
308.693
337.455
361.091
378.171
389.612
396.984
401.413
404.343
405.968
406.513
406.462
405.164
403.038
401.692
401.887
402.799
400.9
348.432
348.432
348.432
348.432
348.432
348.432
348.431
348.429
348.42
348.386
348.269
347.938
347.131
345.455
342.426
337.819
331.85
325.019
317.967
310.947
304.179
297.994
290.81
287.265
280.119
274.075
271.688
269.131
263.806
258.333
255.648
255.468
256.041
256.304
255.109
251.393
248.816
247.672
247.356
247.449
248.59
254.553
274.639
305.485
334.807
359.231
377.149
389.161
396.79
401.438
404.413
406.031
406.594
406.56
405.384
403.212
401.626
401.688
402.451
400.747
348.432
348.432
348.432
348.432
348.432
348.432
348.431
348.429
348.42
348.386
348.271
347.946
347.148
345.492
342.492
337.92
331.989
325.191
318.157
311.151
304.372
298.166
290.998
287.399
280.121
274.188
271.855
269.138
263.635
258.173
255.546
255.381
256.024
256.236
254.899
251.056
248.498
247.417
247.123
247.219
248.307
253.954
273.344
304.298
334.006
358.869
377.153
389.24
396.827
401.494
404.51
406.146
406.691
406.626
405.303
403.126
401.531
401.571
402.278
400.747
348.432
348.432
348.432
348.432
348.432
348.432
348.431
348.429
348.42
348.387
348.273
347.951
347.161
345.517
342.533
337.978
332.058
325.263
318.231
311.221
304.461
298.274
291.1
287.549
280.365
274.344
271.973
269.363
263.963
258.478
255.782
255.59
256.159
256.415
255.101
251.148
248.516
247.388
247.073
247.153
248.143
253.381
271.863
302.715
332.621
357.674
376.227
388.573
396.338
401.133
404.226
405.948
406.584
406.61
405.59
403.406
401.658
401.375
402.027
400.69
348.432
348.432
348.432
348.432
348.432
348.432
348.431
348.429
348.42
348.388
348.275
347.957
347.176
345.549
342.592
338.069
332.183
325.42
318.407
311.416
304.645
298.44
291.288
287.678
280.365
274.475
272.158
269.378
263.813
258.357
255.729
255.547
256.186
256.382
254.927
250.882
248.286
247.238
246.956
247.048
248.035
253.114
271.12
302.036
332.325
357.813
376.636
388.872
396.354
400.964
404.003
405.745
406.415
406.493
405.625
403.556
401.79
401.282
402.005
400.781
348.432
348.432
348.432
348.432
348.432
348.432
348.431
348.429
348.421
348.388
348.277
347.963
347.188
345.573
342.632
338.126
332.251
325.49
318.478
311.478
304.727
298.529
291.387
287.813
280.57
274.619
272.277
269.571
264.073
258.607
255.936
255.741
256.311
256.541
255.099
250.961
248.353
247.265
246.946
247.005
247.844
252.363
268.989
299.688
330.336
356.456
375.943
388.767
396.45
400.996
403.931
405.652
406.362
406.496
405.829
403.861
401.95
401.093
401.843
400.758
348.432
348.432
348.432
348.432
348.432
348.432
348.431
348.429
348.421
348.389
348.279
347.968
347.202
345.602
342.685
338.208
332.365
325.633
318.642
311.663
304.904
298.677
291.586
287.93
280.565
274.776
272.48
269.589
263.97
258.531
255.903
255.71
256.338
256.559
255.153
251.058
248.309
247.117
246.705
246.702
247.256
250.743
264.75
295.195
326.96
354.385
375.071
388.716
396.796
401.405
404.265
405.899
406.541
406.662
405.93
403.916
402.029
400.985
401.729
400.83
348.432
348.432
348.432
348.432
348.432
348.432
348.431
348.429
348.421
348.389
348.281
347.973
347.213
345.625
342.724
338.263
332.431
325.701
318.709
311.719
304.985
298.732
291.739
288.016
280.688
274.982
272.678
269.735
264.177
258.732
256.049
255.834
256.417
256.758
255.715
251.889
248.732
246.969
246.156
245.982
246.185
248.145
257.779
285.366
318.954
348.325
371.115
386.623
396.074
401.376
404.495
406.226
406.868
406.992
406.173
404.031
402.065
400.739
401.409
400.805
348.432
348.432
348.432
348.432
348.432
348.432
348.431
348.429
348.421
348.39
348.283
347.978
347.226
345.651
342.772
338.338
332.534
325.833
318.861
311.89
305.184
298.712
292.467
287.119
281.527
275.603
272.091
269.292
264.706
259.47
256.132
255.484
255.868
256.385
256.177
253.989
250.251
247.686
246.401
246.094
246.221
247.586
254.311
276.331
309.595
340.572
365.605
383.247
394.417
400.724
404.477
406.498
407.218
407.362
406.513
404.262
402.186
400.638
401.233
400.781
348.432
348.432
348.432
348.432
348.432
348.432
348.431
348.43
348.421
348.391
348.285
347.983
347.237
345.672
342.808
338.39
332.598
325.898
318.926
311.935
305.298
298.552
293.311
285.799
282.614
276.739
270.859
268.006
265.634
261.642
257.305
254.766
254.395
254.647
255.166
255.031
253.33
250.457
248.82
248.34
248.371
249.286
254.586
273.542
304.427
334.302
359.685
378.763
391.637
399.254
403.677
406.273
407.267
407.506
406.81
404.593
402.329
400.497
400.945
400.481
348.432
348.432
348.432
348.432
348.432
348.432
348.431
348.43
348.421
348.391
348.287
347.988
347.248
345.697
342.852
338.458
332.692
326.019
319.067
312.1
305.46
298.665
293.585
285.751
282.526
277.361
270.783
267.427
265.623
262.306
257.867
254.664
253.835
253.943
254.49
254.614
253.686
251.527
250.31
250.025
250.104
251.049
256.17
274.316
304.005
332.575
357.12
376.14
389.378
397.93
402.843
405.749
407.118
407.49
407.013
405.043
402.626
400.522
400.814
400.286
348.432
348.432
348.432
348.432
348.432
348.432
348.431
348.43
348.421
348.392
348.288
347.992
347.258
345.717
342.887
338.508
332.753
326.082
319.128
312.146
305.527
298.711
293.7
285.812
282.573
277.62
270.901
267.27
265.639
262.664
258.267
254.843
253.701
253.75
254.185
254.244
253.552
252.129
251.327
251.124
251.182
252.05
257.152
275.482
304.805
332.482
356.098
374.517
387.605
396.427
401.878
405.082
406.7
407.32
407.045
405.451
402.916
400.509
400.612
399.909
348.432
348.432
348.432
348.432
348.432
348.432
348.431
348.43
348.422
348.392
348.29
347.996
347.269
345.739
342.927
338.571
332.84
326.194
319.259
312.302
305.675
298.856
293.863
285.911
282.609
277.833
271.025
267.202
265.605
262.785
258.351
254.891
253.737
253.742
254.043
254.056
253.365
252.276
251.632
251.456
251.501
252.331
257.462
276.189
305.387
332.734
356.101
374
386.632
395.244
400.9
404.387
406.156
406.987
406.95
405.975
403.5
400.732
400.614
399.66
348.432
348.432
348.432
348.432
348.432
348.432
348.431
348.43
348.422
348.392
348.291
348
347.278
345.757
342.96
338.618
332.898
326.253
319.316
312.344
305.731
298.908
293.927
285.995
282.711
277.939
271.112
267.218
265.656
262.996
258.583
254.974
253.614
253.604
253.917
253.95
253.45
252.449
251.811
251.616
251.646
252.429
257.564
276.409
305.268
332.241
355.428
373.254
385.703
394.146
399.881
403.602
405.586
406.512
406.623
406.047
403.89
400.851
400.538
399.303
348.432
348.432
348.432
348.432
348.432
348.432
348.431
348.43
348.422
348.393
348.293
348.004
347.288
345.778
342.997
338.676
332.978
326.357
319.439
312.493
305.868
299.064
294.047
286.123
282.822
278.027
271.202
267.318
265.744
263.055
258.577
254.939
253.644
253.624
253.914
253.947
253.431
252.512
251.916
251.721
251.731
252.469
257.554
276.202
304.917
331.736
354.79
372.613
384.944
393.312
399.087
402.941
405.151
406.21
406.371
406.095
404.504
401.191
400.657
399.1
348.432
348.432
348.432
348.432
348.432
348.432
348.431
348.43
348.422
348.393
348.294
348.008
347.296
345.795
343.027
338.72
333.033
326.413
319.492
312.531
305.918
299.114
294.09
286.204
282.94
278.063
271.249
267.417
265.859
263.163
258.651
254.958
253.584
253.586
253.92
253.964
253.521
252.598
251.981
251.755
251.741
252.453
257.45
276.003
304.847
331.696
354.674
372.457
384.639
392.823
398.551
402.449
404.8
405.985
406.166
405.978
404.667
401.294
400.613
398.81
348.432
348.432
348.432
348.432
348.432
348.432
348.431
348.43
348.422
348.394
348.295
348.011
347.305
345.814
343.062
338.774
333.107
326.51
319.607
312.671
306.049
299.263
294.208
286.33
283.052
278.154
271.341
267.525
265.959
263.226
258.638
254.925
253.637
253.633
253.964
254.005
253.545
252.594
251.923
251.635
251.606
252.325
257.319
275.897
304.834
331.729
354.719
372.558
384.708
392.708
398.367
402.233
404.654
405.939
406.177
406.014
404.945
401.576
400.697
398.628
348.432
348.432
348.432
348.432
348.432
348.432
348.431
348.43
348.422
348.394
348.297
348.015
347.313
345.83
343.09
338.815
333.158
326.562
319.656
312.706
306.092
299.313
294.228
286.414
283.178
278.138
271.361
267.659
266.096
263.284
258.648
254.905
253.577
253.605
254.006
254.067
253.609
252.554
251.834
251.548
251.519
252.217
257.149
275.598
304.533
331.397
354.358
372.322
384.633
392.562
398.215
402.096
404.568
405.913
406.204
406.028
405.005
401.609
400.621
398.38
348.432
348.432
348.432
348.432
348.432
348.432
348.432
348.43
348.422
348.394
348.298
348.018
347.322
345.848
343.122
338.865
333.228
326.653
319.765
312.838
306.216
299.459
294.334
286.547
283.31
278.19
271.447
267.838
266.247
263.295
258.566
254.879
253.708
253.753
254.152
254.15
253.535
252.457
251.784
251.54
251.522
252.183
256.887
274.778
303.572
330.341
353.313
371.476
384.097
392.145
397.865
401.856
404.429
405.848
406.203
406.059
405.108
401.744
400.631
398.224
348.432
348.432
348.432
348.432
348.432
348.432
348.432
348.43
348.422
348.395
348.299
348.021
347.329
345.863
343.149
338.903
333.275
326.702
319.81
312.869
306.254
299.501
294.348
286.623
283.417
278.158
271.462
267.979
266.372
263.291
258.514
254.87
253.719
253.808
254.23
254.173
253.411
252.35
251.741
251.562
251.567
252.187
256.696
274.21
303.172
329.827
352.377
370.356
383.145
391.366
397.146
401.367
404.136
405.681
406.101
406.004
405.101
401.763
400.55
398.01
348.432
348.432
348.432
348.432
348.432
348.432
348.432
348.43
348.422
348.395
348.3
348.024
347.337
345.879
343.179
338.95
333.341
326.786
319.912
312.994
306.374
299.64
294.454
286.753
283.546
278.212
271.557
268.173
266.523
263.273
258.414
254.893
253.928
254.039
254.418
254.199
253.154
252.197
251.698
251.571
251.595
252.199
256.546
273.75
302.963
329.785
352.138
369.765
382.425
390.648
396.352
400.7
403.663
405.368
405.879
405.865
405.094
401.89
400.574
397.89
348.432
348.432
348.432
348.432
348.432
348.432
348.432
348.43
348.422
348.395
348.301
348.027
347.344
345.893
343.203
338.986
333.384
326.831
319.954
313.022
306.407
299.674
294.47
286.814
283.626
278.188
271.571
268.288
266.613
263.236
258.355
254.911
253.967
254.113
254.465
254.157
252.971
252.032
251.548
251.422
251.447
252.035
256.236
273.209
302.774
329.921
352.232
369.604
382.058
390.137
395.619
399.872
402.931
404.794
405.432
405.52
404.943
401.977
400.567
397.714
348.432
348.432
348.432
348.432
348.432
348.432
348.432
348.43
348.423
348.396
348.302
348.03
347.351
345.908
343.231
339.03
333.446
326.912
320.05
313.14
306.522
299.806
294.578
286.938
283.748
278.26
271.676
268.459
266.743
263.244
258.322
254.962
254.138
254.289
254.63
254.224
252.879
251.83
251.251
251.074
251.087
251.67
255.806
272.657
302.485
330.02
352.498
369.749
382.017
389.938
395.232
399.302
402.366
404.32
405.066
405.224
404.825
402.15
400.675
397.634
348.432
348.432
348.432
348.432
348.432
348.432
348.432
348.43
348.423
348.396
348.303
348.033
347.357
345.921
343.253
339.062
333.486
326.953
320.088
313.165
306.551
299.834
294.588
286.99
283.81
278.235
271.689
268.541
266.804
263.235
258.305
254.944
254.095
254.277
254.651
254.302
252.929
251.706
251.019
250.803
250.812
251.382
255.4
271.89
301.733
329.58
352.37
369.764
382.061
389.936
395.047
398.896
401.837
403.805
404.611
404.819
404.575
402.19
400.698
397.497
348.432
348.432
348.432
348.432
348.432
348.432
348.432
348.43
348.423
348.396
348.304
348.035
347.364
345.935
343.28
339.104
333.545
327.029
320.18
313.277
306.662
299.957
294.704
287.103
283.919
278.346
271.801
268.653
266.907
263.326
258.36
254.976
254.171
254.347
254.759
254.42
253.018
251.7
250.965
250.737
250.744
251.297
255.165
271.159
300.841
328.846
351.897
369.494
381.927
389.9
394.982
398.721
401.551
403.507
404.336
404.565
404.416
402.226
400.739
397.421
348.432
348.432
348.432
348.432
348.432
348.432
348.432
348.43
348.423
348.396
348.305
348.038
347.37
345.947
343.3
339.134
333.581
327.066
320.213
313.299
306.687
299.978
294.711
287.144
283.964
278.329
271.806
268.697
266.944
263.334
258.358
254.954
254.115
254.314
254.755
254.442
253.059
251.702
250.956
250.728
250.739
251.285
255.044
270.644
300.178
328.285
351.526
369.27
381.811
389.866
394.951
398.617
401.357
403.263
404.074
404.306
404.222
402.146
400.674
397.288
348.432
348.432
348.432
348.432
348.432
348.432
348.432
348.43
348.423
348.397
348.306
348.04
347.376
345.96
343.326
339.174
333.637
327.138
320.301
313.405
306.793
300.101
294.817
287.264
284.079
278.422
271.919
268.83
267.058
263.41
258.404
255.002
254.212
254.403
254.845
254.511
253.077
251.732
251.013
250.799
250.811
251.336
254.935
269.996
299.39
327.679
351.194
369.128
381.753
389.859
394.952
398.574
401.265
403.137
403.935
404.174
404.126
402.101
400.635
397.216
348.432
348.432
348.432
348.432
348.432
348.432
348.432
348.43
348.423
348.397
348.307
348.043
347.381
345.971
343.344
339.2
333.669
327.171
320.33
313.424
306.813
300.119
294.812
287.305
284.121
278.37
271.917
268.901
267.096
263.36
258.35
254.985
254.199
254.42
254.868
254.501
253.005
251.696
251.031
250.848
250.867
251.387
254.9
269.633
298.794
327.128
350.9
369.098
381.874
390.009
395.06
398.626
401.259
403.076
403.839
404.074
404.031
402.001
400.528
397.095
348.432
348.432
348.432
348.432
348.432
348.432
348.432
348.43
348.423
348.397
348.308
348.045
347.387
345.984
343.368
339.238
333.723
327.241
320.414
313.525
306.914
300.242
294.906
287.436
284.247
278.43
272.035
269.092
267.232
263.377
258.354
255.056
254.356
254.581
255.002
254.542
252.907
251.667
251.063
250.9
250.919
251.43
254.913
269.584
298.654
326.897
350.662
368.982
381.934
390.178
395.234
398.736
401.315
403.085
403.825
404.05
404.005
401.98
400.492
397.034
348.432
348.432
348.432
348.432
348.432
348.432
348.432
348.43
348.423
348.397
348.308
348.047
347.392
345.993
343.385
339.262
333.752
327.27
320.44
313.541
306.93
300.254
294.896
287.471
284.278
278.361
272.032
269.18
267.259
263.267
258.256
255.052
254.393
254.653
255.049
254.489
252.736
251.541
250.981
250.83
250.846
251.35
254.851
269.647
298.806
327.018
350.7
368.98
381.977
390.278
395.365
398.863
401.412
403.132
403.844
404.052
403.989
401.939
400.43
396.948
348.432
348.432
348.432
348.432
348.432
348.432
348.432
348.43
348.423
348.398
348.309
348.049
347.398
346.006
343.408
339.299
333.804
327.337
320.52
313.638
307.029
300.369
295.002
287.586
284.393
278.454
272.155
269.347
267.38
263.3
258.289
255.15
254.557
254.816
255.187
254.551
252.68
251.427
250.81
250.616
250.616
251.095
254.645
269.737
299.141
327.387
350.973
369.134
382.058
390.317
395.414
398.936
401.513
403.217
403.9
404.081
404
401.949
400.417
396.922
348.432
348.432
348.432
348.432
348.432
348.432
348.432
348.43
348.423
348.398
348.31
348.051
347.402
346.014
343.422
339.32
333.829
327.362
320.542
313.65
307.042
300.37
295.001
287.596
284.4
278.417
272.141
269.369
267.372
263.238
258.235
255.127
254.537
254.822
255.215
254.609
252.697
251.274
250.523
250.255
250.236
250.708
254.356
269.854
299.496
327.725
351.204
369.315
382.222
390.431
395.472
398.982
401.574
403.278
403.958
404.122
404.016
401.962
400.419
396.908
348.432
348.432
348.432
348.432
348.432
348.432
348.432
348.43
348.423
348.398
348.311
348.053
347.408
346.026
343.445
339.356
333.879
327.427
320.62
313.743
307.141
300.479
295.12
287.702
284.511
278.562
272.272
269.479
267.49
263.379
258.36
255.216
254.631
254.911
255.349
254.811
252.853
251.225
250.36
250.059
250.039
250.514
254.22
269.922
299.69
327.865
351.223
369.273
382.167
390.365
395.39
398.93
401.554
403.278
403.98
404.14
404.027
402.035
400.496
396.966
348.432
348.432
348.432
348.432
348.432
348.432
348.432
348.43
348.423
348.398
348.311
348.055
347.411
346.033
343.458
339.374
333.901
327.45
320.643
313.757
307.158
300.487
295.12
287.73
284.535
278.549
272.271
269.493
267.523
263.427
258.383
255.209
254.594
254.892
255.359
254.85
252.894
251.214
250.331
250.028
250.008
250.475
254.193
269.988
300
328.092
351.138
369.049
381.982
390.198
395.209
398.794
401.459
403.218
403.954
404.119
403.991
402.062
400.535
397.003
348.432
348.432
348.432
348.432
348.432
348.432
348.432
348.43
348.423
348.399
348.312
348.057
347.417
346.046
343.481
339.413
333.96
327.526
320.735
313.869
307.273
300.635
295.239
287.878
284.688
278.715
272.408
269.597
267.664
263.629
258.533
255.263
254.607
254.886
255.374
254.915
253.021
251.306
250.387
250.062
250.034
250.483
254.162
269.868
300.102
328.393
351.287
368.826
381.489
389.69
394.81
398.573
401.364
403.21
404.016
404.219
404.106
402.384
400.915
397.351
348.432
348.432
348.432
348.432
348.432
348.432
348.432
348.43
348.423
348.399
348.313
348.061
347.425
346.062
343.509
339.451
334.001
327.565
320.761
313.878
307.259
300.61
295.196
287.817
284.625
278.653
272.264
269.387
267.499
263.552
258.415
255.041
254.285
254.583
255.13
254.805
253.18
251.454
250.473
250.097
250.046
250.436
253.892
268.963
299.198
328.053
351.502
369.062
381.225
388.915
393.637
397.048
399.85
401.847
402.829
403.111
403.063
401.498
400.03
396.692
348.432
348.432
348.432
348.432
348.432
348.432
348.432
348.43
348.423
348.399
348.312
348.057
347.416
346.04
343.469
339.387
333.915
327.463
320.66
313.785
307.191
300.53
295.191
287.722
284.542
278.765
272.306
269.301
267.486
263.745
258.634
255.162
254.37
254.662
255.294
255.139
253.849
251.951
250.74
250.221
250.126
250.513
254.069
269.417
299.276
327.718
351.129
368.97
381.479
389.41
394.192
397.488
400.019
401.801
402.652
402.889
402.752
401.14
399.585
396.731
348.432
348.432
348.432
348.432
348.432
348.432
348.432
348.43
348.423
348.399
348.314
348.061
347.425
346.06
343.507
339.446
333.995
327.562
320.764
313.889
307.277
300.605
295.264
287.774
284.59
278.78
272.286
269.259
267.463
263.756
258.59
255.025
254.16
254.44
255.089
254.991
253.839
251.905
250.62
250.048
249.93
250.303
253.836
269.131
299.11
327.594
350.967
368.739
381.152
389.005
393.801
397.223
399.792
401.55
402.338
402.548
402.381
400.801
399.46
396.677
348.432
348.432
348.432
348.432
348.432
348.432
348.432
348.43
348.423
348.399
348.313
348.059
347.419
346.046
343.477
339.393
333.916
327.456
320.648
313.765
307.178
300.496
295.187
287.696
284.517
278.795
272.292
269.23
267.445
263.787
258.664
255.101
254.238
254.551
255.245
255.174
254.097
252.118
250.752
250.131
250.005
250.369
253.681
268.167
297.811
326.688
350.81
369.33
382.279
390.359
395.113
398.376
400.753
402.319
402.991
403.194
403.042
401.705
399.789
397.047
348.432
348.432
348.432
348.432
348.432
348.432
348.432
348.43
348.424
348.399
348.314
348.061
347.426
346.06
343.506
339.441
333.986
327.554
320.764
313.898
307.292
300.616
295.308
287.764
284.574
278.838
272.31
269.227
267.459
263.829
258.67
255.059
254.168
254.453
255.135
255.09
254.073
252.104
250.709
250.048
249.899
250.217
253.295
267.216
296.916
325.931
350.069
368.683
381.769
389.989
394.901
398.391
401.039
402.688
403.452
403.661
403.522
402.359
400.622
397.448
348.432
348.432
348.432
348.432
348.432
348.432
348.432
348.43
348.424
348.399
348.314
348.061
347.423
346.051
343.485
339.4
333.918
327.452
320.638
313.746
307.164
300.457
295.181
287.67
284.492
278.829
272.28
269.166
267.408
263.811
258.696
255.073
254.157
254.475
255.205
255.174
254.233
252.261
250.809
250.109
249.943
250.243
253.171
266.671
296.246
325.219
349.216
367.732
380.939
389.343
394.379
398.023
400.89
402.801
403.878
404.26
404.242
403.588
401.483
398.123
348.432
348.432
348.432
348.432
348.432
348.432
348.432
348.43
348.424
348.399
348.315
348.062
347.427
346.06
343.505
339.435
333.977
327.543
320.758
313.903
307.306
300.633
295.352
287.757
284.551
278.894
272.332
269.185
267.448
263.904
258.761
255.09
254.166
254.444
255.142
255.128
254.218
252.283
250.832
250.102
249.917
250.169
252.853
265.687
295.128
324.369
348.404
366.775
379.871
388.176
393.213
396.97
400.114
402.286
403.625
404.15
404.202
403.808
402.074
398.54
348.432
348.432
348.432
348.432
348.432
348.432
348.432
348.43
348.424
348.399
348.315
348.062
347.426
346.056
343.492
339.407
333.922
327.449
320.631
313.729
307.151
300.405
295.183
287.633
284.45
278.893
272.278
269.06
267.353
263.891
258.789
255.063
254.075
254.379
255.119
255.12
254.306
252.401
250.909
250.161
249.971
250.205
252.628
264.315
292.868
322.651
347.711
367.128
380.964
389.571
394.53
397.926
400.653
402.645
403.908
404.481
404.566
404.271
402.721
399.127
348.432
348.432
348.432
348.432
348.432
348.432
348.432
348.43
348.424
348.4
348.315
348.063
347.428
346.061
343.504
339.431
333.966
327.528
320.747
313.901
307.317
300.644
295.399
287.746
284.519
278.963
272.359
269.127
267.427
263.993
258.862
255.131
254.176
254.432
255.115
255.116
254.267
252.367
250.896
250.134
249.931
250.133
252.389
263.608
292.019
322.1
347.239
366.69
380.56
389.201
394.243
397.768
400.721
402.827
404.12
404.653
404.737
404.347
402.603
399.244
348.432
348.432
348.432
348.432
348.432
348.432
348.432
348.43
348.424
348.4
348.316
348.064
347.429
346.061
343.499
339.414
333.926
327.449
320.626
313.716
307.139
300.365
295.178
287.604
284.413
278.943
272.279
268.976
267.313
263.964
258.87
255.068
254.027
254.319
255.055
255.058
254.284
252.401
250.893
250.127
249.927
250.145
252.492
264.015
292.766
322.798
347.661
366.748
380.139
388.532
393.452
396.868
399.777
402.021
403.553
404.363
404.578
404.439
403.38
399.926
348.432
348.432
348.432
348.432
348.432
348.432
348.432
348.43
348.424
348.4
348.316
348.065
347.431
346.065
343.505
339.429
333.955
327.509
320.73
313.892
307.323
300.656
295.44
287.743
284.497
279.023
272.381
269.084
267.411
264.054
258.934
255.184
254.236
254.493
255.141
255.098
254.149
252.253
250.835
250.093
249.893
250.093
252.36
263.707
292.431
322.682
347.722
366.931
380.348
388.708
393.542
396.867
399.756
401.988
403.584
404.389
404.604
404.45
403.369
400.206
348.432
348.432
348.432
348.432
348.432