/*--------------------------------*- C++ -*----------------------------------*\
| =========                 |                                                 |
| \\      /  F ield         | OpenFOAM: The Open Source CFD Toolbox           |
|  \\    /   O peration     | Version:  5.x                                   |
|   \\  /    A nd           | Web:      www.OpenFOAM.org                      |
|    \\/     M anipulation  |                                                 |
\*---------------------------------------------------------------------------*/
/*   Windows 32 and 64 bit porting by blueCAPE: http://www.bluecape.com.pt   *\
|  Based on Windows porting (2.0.x v4) by Symscape: http://www.symscape.com   |
\*---------------------------------------------------------------------------*/
FoamFile
{
    version     2.0;
    format      ascii;
    class       volVectorField;
    location    "0.005";
    object      U;
}
// * * * * * * * * * * * * * * * * * * * * * * * * * * * * * * * * * * * * * //

dimensions      [0 1 -1 0 0 0 0];

internalField   nonuniform List<vector> 
10000
(
(3.5062e-008 -4.53841e-011 0)
(3.13858e-007 8.35998e-010 4.3482e-021)
(2.10562e-006 1.37804e-008 4.46844e-021)
(1.4185e-005 1.40578e-007 -1.83681e-020)
(8.2994e-005 1.06077e-006 2.8314e-020)
(0.000469574 7.15786e-006 -8.00023e-026)
(0.00235035 4.06732e-005 -1.99345e-020)
(0.0110628 0.000209862 0)
(0.0463867 0.000940843 0)
(0.178052 0.0037362 0)
(0.595591 0.0128294 -4.43401e-020)
(1.74385 0.037765 3.32728e-022)
(4.43594 0.0956914 4.69696e-020)
(9.92045 0.207257 0)
(19.4148 0.395713 0)
(33.4228 0.656969 0)
(51.1681 0.954145 0)
(71.0126 1.24254 -4.78084e-020)
(91.5613 1.52056 1.00057e-019)
(111.888 1.75539 -5.22672e-020)
(131.664 2.00514 4.85704e-020)
(150.716 2.22709 -5.25756e-020)
(169.038 2.38654 0)
(186.307 2.62746 0)
(202.606 2.77161 0)
(217.907 2.86705 0)
(231.876 3.03539 0)
(244.356 3.2697 0)
(255.452 3.37039 -1.05563e-019)
(265.107 3.3689 1.12077e-019)
(273.338 3.42668 0)
(279.896 3.29804 0)
(284.348 3.08217 0)
(287.344 2.93711 0)
(289.724 2.80004 -1.22325e-019)
(291.653 2.63129 2.49793e-019)
(293.433 2.44147 -2.55785e-019)
(295.564 2.12426 1.31296e-019)
(298.247 1.7389 -1.34968e-019)
(301.34 1.407 1.3931e-019)
(304.651 1.02571 -1.45949e-019)
(308.017 0.68746 1.59683e-019)
(311.559 0.47792 0)
(315.45 0.448175 0)
(319.648 0.473073 -2.30489e-019)
(323.987 0.568111 2.53832e-019)
(328.243 0.728118 0)
(332.226 1.09403 0)
(335.719 1.60081 0)
(338.39 2.05718 3.2075e-019)
(339.936 2.42733 -3.30956e-019)
(340.149 2.70861 0)
(338.827 2.95469 0)
(335.647 3.18109 3.56257e-019)
(330.234 3.25945 -3.55968e-019)
(321.854 3.03857 0)
(313.021 3.50658 0)
(304.638 4.11372 3.80258e-019)
(295.142 4.95083 -1.48702e-021)
(282.153 4.18112 -3.96381e-019)
(3.44093e-008 -7.03131e-010 2.18911e-021)
(3.06833e-007 -6.69075e-009 -2.24965e-021)
(2.04084e-006 -4.5696e-008 0)
(1.37055e-005 -3.16026e-007 0)
(7.96754e-005 -1.87617e-006 0)
(0.00044996 -1.076e-005 0)
(0.0022433 -5.41818e-005 2.06268e-020)
(0.0105529 -0.00025475 -2.11977e-020)
(0.0441914 -0.00105811 -2.17778e-020)
(0.169965 -0.00395919 2.23873e-020)
(0.569942 -0.0134983 0)
(1.67441 -0.0385128 -4.69615e-020)
(4.27337 -0.0947991 4.86019e-020)
(9.59541 -0.202287 -4.8537e-020)
(18.8609 -0.382325 5.11656e-020)
(32.6161 -0.621823 0)
(50.1497 -0.887766 0)
(69.8665 -1.14752 0)
(90.37 -1.40492 0)
(110.714 -1.62783 0)
(130.545 -1.84827 0)
(149.69 -2.09091 0)
(168.123 -2.1926 0)
(185.526 -2.44071 0)
(202.015 -2.58937 -5.17336e-020)
(217.529 -2.66859 5.61948e-020)
(231.701 -2.82931 -5.35839e-020)
(244.399 -3.01909 5.67559e-020)
(255.783 -3.15087 0)
(265.796 -3.19969 0)
(274.386 -3.1996 0)
(281.287 -3.14854 0)
(286.063 -3.05478 1.2218e-019)
(289.298 -2.66632 -1.25299e-019)
(291.812 -2.81816 0)
(293.733 -2.73331 0)
(295.23 -2.52348 0)
(296.724 -2.37477 1.35758e-019)
(298.472 -2.23594 -1.39721e-019)
(300.381 -2.04692 0)
(302.309 -1.9327 -1.51506e-019)
(304.144 -1.79975 3.3215e-019)
(305.918 -1.53453 -1.89468e-019)
(307.717 -1.33741 0)
(309.499 -1.4073 -2.39917e-019)
(311.136 -1.53432 5.24702e-019)
(312.471 -1.70746 -5.6184e-019)
(313.372 -1.89695 2.95428e-019)
(313.703 -2.13217 0)
(313.327 -2.40388 0)
(312.135 -2.60746 0)
(310.076 -2.74441 0)
(307.09 -2.85692 0)
(303.051 -2.88689 0)
(297.554 -2.30519 -3.54235e-019)
(289.227 -2.36841 3.58626e-019)
(280.858 -1.0227 -3.71816e-019)
(273.84 -0.458229 3.81172e-019)
(267.642 1.70288 0)
(259.379 2.72159 0)
(3.42037e-008 -8.19804e-010 2.2651e-021)
(3.0514e-007 -5.92808e-009 2.32774e-021)
(2.02761e-006 -2.7289e-008 -4.78422e-021)
(1.36242e-005 -1.12659e-007 0)
(7.91809e-005 -2.61758e-007 1.0105e-020)
(0.000447468 4.68352e-007 -1.03844e-020)
(0.00223134 1.13525e-005 0)
(0.0105041 9.03926e-005 0)
(0.0440102 0.000516853 0)
(0.169362 0.00242023 0)
(0.568297 0.00863169 0)
(1.67069 0.0276008 0)
(4.26636 0.0747076 -4.95369e-020)
(9.58346 0.16949 5.1645e-020)
(18.8429 0.332878 0)
(32.5903 0.564358 -5.08985e-020)
(50.1085 0.83259 3.829e-021)
(69.7912 1.09633 1.0672e-019)
(90.2396 1.35092 -5.57914e-020)
(110.506 1.56499 0)
(130.23 1.81276 0)
(149.291 1.9651 0)
(167.523 2.19653 5.28503e-020)
(184.881 2.38216 -5.72196e-020)
(201.209 2.49861 0)
(216.451 2.62105 0)
(230.494 2.78185 0)
(243.162 3.00383 0)
(254.412 3.08137 0)
(264.16 3.05766 0)
(272.522 3.12576 0)
(279.352 2.97345 0)
(284.196 2.67594 0)
(287.442 2.93182 0)
(289.851 2.48461 1.32717e-019)
(291.571 2.18279 -1.35683e-019)
(292.677 1.99994 1.38293e-019)
(293.643 1.67917 -1.41933e-019)
(294.763 1.16168 1.45791e-019)
(295.95 0.639765 -1.50036e-019)
(297.083 0.198916 0)
(298.042 -0.0769343 -1.67402e-019)
(298.882 -0.0584458 3.78374e-019)
(299.839 0.0983381 7.78262e-023)
(301.067 0.252778 -2.38362e-019)
(302.567 0.557446 -2.61292e-019)
(304.213 0.883783 2.81396e-019)
(305.897 1.33574 2.98452e-019)
(307.439 1.87096 -3.1267e-019)
(308.563 2.38987 0)
(308.977 2.83607 3.34864e-019)
(308.467 3.22029 -3.43833e-019)
(306.874 3.42747 0)
(304.061 3.56303 -3.61338e-019)
(299.52 4.0164 3.6594e-019)
(292.268 4.0732 0)
(283.974 6.45317 3.8851e-019)
(276.387 6.5808 -3.97075e-019)
(268.666 8.53895 0)
(259.413 9.45491 0)
(3.36258e-008 -1.28961e-009 2.34362e-021)
(2.99291e-007 -1.12059e-008 2.40844e-021)
(1.97507e-006 -6.92111e-008 4.95008e-021)
(1.32409e-005 -4.39419e-007 -1.01739e-020)
(7.65368e-005 -2.40747e-006 0)
(0.000431855 -1.28957e-005 0)
(0.00214579 -6.10049e-005 0)
(0.0100946 -0.00027169 0)
(0.0422323 -0.00107631 0)
(0.162755 -0.00383999 2.39446e-020)
(0.547142 -0.0130922 -6.75017e-023)
(1.61286 -0.0364954 -2.5316e-020)
(4.12938 -0.08802 0)
(9.3069 -0.185638 -5.19992e-020)
(18.3666 -0.349383 5.47844e-020)
(31.8878 -0.564837 0)
(49.2103 -0.805319 0)
(68.7711 -1.02884 0)
(89.1702 -1.25705 -5.33366e-020)
(109.449 -1.45685 5.80401e-020)
(129.214 -1.65226 0)
(148.375 -1.86697 5.43072e-020)
(166.644 -1.95761 -5.86399e-020)
(184.218 -2.18598 0)
(200.7 -2.32842 0)
(216.003 -2.40861 0)
(230.249 -2.52556 -5.71493e-020)
(243.278 -2.64153 3.08913e-021)
(254.858 -2.83337 6.18924e-020)
(264.827 -2.90915 0)
(273.324 -2.89501 0)
(280.332 -2.8767 -6.27265e-020)
(285.523 -2.74826 6.60629e-020)
(289.149 -2.42819 0)
(291.833 -2.44808 0)
(293.66 -2.42236 0)
(294.584 -2.25018 0)
(295.011 -2.10756 0)
(295.324 -2.07567 0)
(295.542 -2.06386 0)
(295.594 -2.07271 0)
(295.374 -2.0409 0)
(294.888 -1.92197 2.00112e-019)
(294.387 -1.75968 -2.2618e-019)
(294.133 -1.75535 0)
(294.241 -1.88025 0)
(294.725 -2.12775 0)
(295.535 -2.28131 -3.06533e-019)
(296.51 -2.35958 3.19872e-019)
(297.412 -2.43744 0)
(297.973 -2.51081 0)
(297.902 -2.52989 0)
(296.949 -2.47551 0)
(294.941 -2.25238 0)
(291.484 -1.92514 0)
(285.516 -1.24725 3.9165e-019)
(278.067 1.43342 -3.94222e-019)
(271.435 2.64015 -4.09046e-019)
(265.238 6.40705 4.20193e-019)
(257.594 9.45507 -4.28811e-019)
(3.32705e-008 -1.4423e-009 0)
(2.96336e-007 -1.13704e-008 4.98367e-021)
(1.95212e-006 -6.05605e-008 -1.13015e-028)
(1.30975e-005 -3.20758e-007 -1.57894e-020)
(7.56577e-005 -1.36549e-006 1.08173e-020)
(0.000427326 -5.22468e-006 0)
(0.00212369 -1.41626e-005 -2.28474e-020)
(0.0100019 -1.6248e-005 2.34797e-020)
(0.041878 0.000124914 0)
(0.161542 0.00117843 0)
(0.543683 0.00459164 0)
(1.60458 0.0176321 -2.6015e-020)
(4.11251 0.053453 5.34437e-020)
(9.27624 0.131043 -2.76439e-020)
(18.3189 0.268057 -5.42771e-020)
(31.8234 0.475137 5.78928e-020)
(49.1281 0.726809 0)
(68.657 0.967554 0)
(89.0082 1.19904 5.51982e-020)
(109.217 1.39522 -6.00746e-020)
(128.891 1.62101 0)
(147.958 1.7771 0)
(166.105 1.95989 0)
(183.543 2.17134 5.73807e-020)
(199.909 2.27726 -6.1614e-020)
(215.063 2.37452 -5.8045e-020)
(229.133 2.51105 6.27403e-020)
(242.005 2.68611 0)
(253.457 2.83679 -6.1326e-020)
(263.284 2.82557 6.44703e-020)
(271.658 2.85265 0)
(278.592 2.66109 0)
(283.686 2.42137 0)
(287.167 2.65445 -6.94516e-020)
(289.715 2.13046 7.19214e-020)
(291.468 1.95446 0)
(292.372 1.69212 0)
(292.829 1.43309 0)
(293.221 0.967942 0)
(293.537 0.458715 1.61584e-019)
(293.675 0.0169359 -3.36017e-019)
(293.488 -0.317284 1.81811e-019)
(292.948 -0.458436 2.06857e-019)
(292.301 -0.39627 -2.33379e-019)
(291.859 -0.0989967 0)
(291.805 0.344728 0)
(292.184 0.816068 0)
(292.966 1.32281 0)
(294.019 1.84011 3.29425e-019)
(295.113 2.31286 -3.41895e-019)
(295.966 2.73642 0)
(296.296 3.12221 3.6399e-019)
(295.854 3.54087 -3.73346e-019)
(294.416 4.09996 -3.85024e-019)
(291.565 4.4893 -3.87144e-021)
(286.282 4.59436 4.00416e-019)
(279.09 6.81195 -4.1545e-019)
(272.402 8.3614 4.22933e-019)
(266.106 11.0981 4.34911e-019)
(258.731 13.6114 -8.87318e-019)
(3.27323e-008 -1.76677e-009 0)
(2.9123e-007 -1.48796e-008 0)
(1.90775e-006 -8.82255e-008 0)
(1.27814e-005 -5.38969e-007 0)
(7.34976e-005 -2.82828e-006 0)
(0.000414663 -1.45522e-005 0)
(0.00205433 -6.60176e-005 2.36377e-020)
(0.00966939 -0.000282602 -2.42919e-020)
(0.0404275 -0.00107937 0)
(0.15611 -0.00368558 0)
(0.526153 -0.0125705 -2.62967e-020)
(1.55626 -0.0342364 2.70985e-020)
(3.99683 -0.0809963 0)
(9.04049 -0.16853 0)
(17.9086 -0.316346 0)
(31.211 -0.508308 0)
(48.334 -0.724093 0)
(67.7454 -0.927107 0)
(88.045 -1.1254 0)
(108.26 -1.2995 0)
(127.975 -1.48074 0)
(147.094 -1.65229 -5.81987e-020)
(165.356 -1.75859 6.29077e-020)
(182.896 -1.95319 0)
(199.361 -2.07169 0)
(214.724 -2.14831 0)
(229.037 -2.25016 6.13873e-020)
(242.08 -2.36517 -6.59358e-020)
(253.673 -2.48293 0)
(263.735 -2.60709 0)
(272.387 -2.56932 0)
(279.585 -2.5497 0)
(284.995 -2.45224 0)
(288.679 -2.12149 0)
(291.334 -2.30383 0)
(293.183 -2.15033 0)
(294.09 -2.0572 0)
(294.453 -1.88408 0)
(294.682 -1.84049 0)
(294.848 -1.8197 0)
(294.852 -1.81782 0)
(294.54 -1.89394 0)
(293.827 -1.86089 -2.13896e-019)
(292.899 -1.8289 2.42063e-019)
(292.033 -1.8205 0)
(291.403 -1.94626 0)
(291.127 -2.1545 0)
(291.254 -2.32826 0)
(291.706 -2.44274 0)
(292.313 -2.50468 3.52821e-019)
(292.829 -2.50644 -3.64054e-019)
(292.988 -2.47135 0)
(292.551 -2.3501 0)
(291.283 -2.00925 0)
(288.839 -1.52294 0)
(284.422 -0.945298 0)
(277.921 1.86566 0)
(271.661 4.88904 0)
(265.996 9.06277 0)
(259.539 13.5855 0)
(3.22997e-008 -1.92173e-009 0)
(2.8764e-007 -1.55304e-008 0)
(1.87984e-006 -8.58545e-008 0)
(1.26056e-005 -4.79714e-007 0)
(7.24113e-005 -2.21475e-006 0)
(0.000408996 -9.66311e-006 0)
(0.00202632 -3.43941e-005 0)
(0.00954992 -0.000102615 0)
(0.039963 -0.000201541 0)
(0.154498 0.000114182 0)
(0.521462 0.00108706 0)
(1.54475 0.00877287 0)
(3.97278 0.0339777 0)
(8.99587 0.0955043 0)
(17.8383 0.206473 0)
(31.1165 0.388988 0)
(48.2199 0.623227 0)
(67.6027 0.854375 0)
(87.8611 1.06224 0)
(108.013 1.23975 0)
(127.647 1.4407 0)
(146.688 1.59281 0)
(164.827 1.75337 0)
(182.254 1.99994 0)
(198.628 2.07204 0)
(213.836 2.14676 0)
(227.972 2.26972 0)
(240.885 2.43497 0)
(252.385 2.56036 0)
(262.327 2.57701 0)
(270.863 2.58788 0)
(277.979 2.40008 0)
(283.269 2.17714 0)
(286.823 2.33191 0)
(289.394 1.93641 -7.63741e-020)
(291.241 1.81996 7.81827e-020)
(292.276 1.58515 0)
(292.896 1.37203 0)
(293.511 0.989815 0)
(294.156 0.57953 0)
(294.695 0.209785 8.9385e-020)
(294.946 -0.156619 -9.58904e-020)
(294.791 -0.334387 0)
(294.351 -0.358267 0)
(293.876 -0.16867 0)
(293.547 0.175789 0)
(293.467 0.662222 -1.59595e-019)
(293.665 1.1612 1.68253e-019)
(294.08 1.65703 0)
(294.563 2.10865 0)
(294.903 2.51175 0)
(294.888 2.91098 0)
(294.328 3.35397 0)
(293.013 3.82648 0)
(290.558 4.45332 0)
(286.228 5.09644 0)
(279.71 7.20768 0)
(273.175 9.58898 0)
(267.373 12.446 0)
(261.235 16.4853 0)
(3.17839e-008 -2.14593e-009 -2.68491e-021)
(2.83012e-007 -1.7852e-008 8.27749e-021)
(1.84095e-006 -1.0371e-007 -5.67093e-021)
(1.23361e-005 -6.20951e-007 0)
(7.05945e-005 -3.17668e-006 0)
(0.000398474 -1.59371e-005 0)
(0.00196894 -7.02333e-005 0)
(0.0092756 -0.000291916 -2.59969e-020)
(0.038765 -0.00108283 2.67179e-020)
(0.149983 -0.00355504 2.74333e-020)
(0.506816 -0.0121032 -2.8219e-020)
(1.50413 -0.0321526 -2.88163e-020)
(3.87466 -0.0746414 2.98048e-020)
(8.79419 -0.152537 0)
(17.484 -0.28566 3.00997e-020)
(30.5818 -0.455224 -3.20684e-020)
(47.517 -0.647252 0)
(66.7858 -0.832674 0)
(86.9897 -1.00965 -6.12709e-020)
(107.144 -1.15755 5.06658e-021)
(126.811 -1.32099 6.69361e-020)
(145.896 -1.45109 0)
(164.14 -1.58031 0)
(181.658 -1.73375 6.36483e-020)
(198.114 -1.8487 -6.82233e-020)
(213.511 -1.90335 0)
(227.866 -1.99765 0)
(240.941 -2.07748 0)
(252.578 -2.17124 0)
(262.722 -2.2998 0)
(271.473 -2.25428 0)
(278.797 -2.27086 0)
(284.379 -2.21737 -7.45086e-020)
(288.142 -1.88001 7.79563e-020)
(290.835 -2.06939 -7.8663e-020)
(292.812 -1.90671 1.60616e-019)
(293.905 -1.82946 -8.21429e-020)
(294.51 -1.67631 0)
(295.049 -1.66208 -8.63443e-020)
(295.622 -1.66451 1.77686e-019)
(296.096 -1.68111 -9.22437e-020)
(296.298 -1.76963 0)
(296.109 -1.84325 1.12867e-019)
(295.62 -1.91344 -2.56047e-019)
(295.041 -1.93418 1.42326e-019)
(294.512 -1.99636 -1.54888e-019)
(294.14 -2.11113 1.65608e-019)
(294 -2.25531 0)
(294.077 -2.31833 0)
(294.267 -2.33366 0)
(294.386 -2.32998 -1.94884e-019)
(294.212 -2.29381 2.00449e-019)
(293.544 -2.19396 -2.06361e-019)
(292.227 -1.91589 2.10869e-019)
(289.991 -1.34192 0)
(286.248 -0.327405 0)
(280.286 2.605 0)
(273.966 6.30314 0)
(268.428 10.6129 0)
(262.851 16.2778 0)
(3.13187e-008 -2.2839e-009 -2.77749e-021)
(2.79177e-007 -1.86484e-008 -2.8543e-021)
(1.81114e-006 -1.04608e-007 5.86647e-021)
(1.21476e-005 -5.97455e-007 0)
(6.94216e-005 -2.84559e-006 0)
(0.000392301 -1.29918e-005 0)
(0.00193809 -4.97898e-005 0)
(0.00914237 -0.000169651 -1.34466e-020)
(0.0382395 -0.000461176 4.14517e-020)
(0.148141 -0.000760539 -2.47382e-023)
(0.501365 -0.0018091 -7.40739e-023)
(1.49052 0.00125487 -5.98136e-020)
(3.8457 0.0168663 4.2329e-022)
(8.73971 0.0637896 8.11522e-022)
(17.3972 0.150323 3.24722e-020)
(30.4644 0.308565 -3.13144e-020)
(47.3781 0.524523 3.37189e-020)
(66.6219 0.748141 -3.15598e-020)
(86.7918 0.940096 3.43141e-020)
(106.889 1.09785 0)
(126.485 1.27344 0)
(145.502 1.41816 0)
(163.628 1.56092 0)
(181.048 1.83015 -6.58961e-020)
(197.433 1.85934 7.0678e-020)
(212.681 1.92114 0)
(226.87 2.0374 0)
(239.829 2.20774 0)
(251.386 2.32327 7.0173e-020)
(261.434 2.3209 -1.44823e-019)
(270.103 2.32374 2.46855e-021)
(277.367 2.12798 7.68068e-020)
(282.839 1.97183 0)
(286.476 2.00267 0)
(289.076 1.72306 8.16639e-020)
(291.015 1.62486 -8.34673e-020)
(292.171 1.44083 -8.48122e-020)
(292.926 1.27265 8.70039e-020)
(293.696 0.943479 0)
(294.562 0.560914 9.18398e-020)
(295.367 0.199569 -9.52187e-020)
(295.921 -0.14801 0)
(296.082 -0.374114 0)
(295.916 -0.450589 1.31107e-019)
(295.63 -0.298783 -1.45838e-019)
(295.385 0.00533603 0)
(295.283 0.475183 0)
(295.374 1.01774 0)
(295.615 1.51826 1.87857e-019)
(295.876 1.96379 -1.95045e-019)
(295.987 2.36605 0)
(295.785 2.75676 0)
(295.111 3.22165 -2.1375e-019)
(293.791 3.75852 2.18709e-019)
(291.525 4.32861 0)
(287.855 5.11145 -2.31161e-019)
(281.903 7.00102 -3.82722e-021)
(275.408 10.3817 4.83187e-019)
(269.819 13.6385 -2.48147e-019)
(264.58 18.4752 2.53795e-019)
(3.08203e-008 -2.44202e-009 0)
(2.74889e-007 -2.0203e-008 0)
(1.77612e-006 -1.16095e-007 0)
(1.19113e-005 -6.87533e-007 0)
(6.78522e-005 -3.46433e-006 -1.28177e-020)
(0.000383344 -1.71071e-005 1.31721e-020)
(0.0018896 -7.39254e-005 0)
(0.00891187 -0.000300827 0)
(0.037235 -0.00109059 0)
(0.144339 -0.0034652 0)
(0.488999 -0.0117411 0)
(1.45607 -0.0303879 0)
(3.76196 -0.0693585 0)
(8.56631 -0.138412 0)
(17.09 -0.25833 0)
(29.9965 -0.407205 0)
(46.7552 -0.576162 0)
(65.8885 -0.743136 0)
(86.0004 -0.907548 0)
(106.096 -1.02875 0)
(125.718 -1.17501 0)
(144.771 -1.27216 0)
(162.998 -1.42044 0)
(180.496 -1.52099 0)
(196.943 -1.64103 0)
(212.363 -1.68637 0)
(226.755 -1.75209 0)
(239.869 -1.81694 0)
(251.552 -1.89621 0)
(261.769 -2.01585 0)
(270.603 -1.96616 0)
(278.042 -2.01669 0)
(283.776 -2.0192 0)
(287.615 -1.71463 8.23685e-020)
(290.33 -1.7668 -1.6914e-019)
(292.356 -1.69322 8.60979e-020)
(293.512 -1.62813 8.74949e-020)
(294.174 -1.49744 -8.98147e-020)
(294.777 -1.50485 0)
(295.461 -1.5408 0)
(296.089 -1.59434 0)
(296.479 -1.70098 0)
(296.495 -1.83086 0)
(296.191 -1.92931 0)
(295.752 -1.93947 0)
(295.319 -1.98829 0)
(295.004 -2.03721 1.76735e-019)
(294.874 -2.10527 -1.86411e-019)
(294.936 -2.07141 1.94574e-019)
(295.113 -2.0364 -2.01853e-019)
(295.229 -2.00539 0)
(295.07 -1.96407 0)
(294.447 -1.83963 0)
(293.228 -1.53286 0)
(291.229 -1.01566 0)
(288.106 0.129543 -2.38357e-019)
(282.873 2.23307 2.41735e-019)
(276.674 7.52649 0)
(271.136 12.1982 0)
(266.298 18.1719 0)
(3.03481e-008 -2.55573e-009 0)
(2.71036e-007 -2.09575e-008 0)
(1.74621e-006 -1.18298e-007 0)
(1.17221e-005 -6.82961e-007 0)
(6.66687e-005 -3.30366e-006 1.32588e-020)
(0.000377076 -1.54246e-005 -1.36254e-020)
(0.001858 -6.1192e-005 0)
(0.00877394 -0.000220263 0)
(0.0366841 -0.000661489 1.47839e-020)
(0.14239 -0.00145957 -1.51969e-020)
(0.483153 -0.00413684 -3.11599e-020)
(1.44126 -0.00492533 6.40087e-020)
(3.72993 0.00222932 -3.29923e-020)
(8.50536 0.0362479 0)
(16.9918 0.100329 0)
(29.8626 0.235074 0)
(46.5976 0.43206 -3.36725e-020)
(65.709 0.646556 7.03093e-020)
(85.7947 0.83097 -3.67509e-020)
(105.84 0.96922 0)
(125.399 1.12372 0)
(144.393 1.26512 0)
(162.502 1.3786 0)
(179.923 1.67165 0)
(196.318 1.67692 0)
(211.589 1.7204 0)
(225.82 1.83032 0)
(238.839 1.99509 -7.44413e-020)
(250.464 2.10671 7.87522e-020)
(260.607 2.07378 0)
(269.385 2.07613 0)
(276.776 1.86498 0)
(282.435 1.79552 0)
(286.202 1.70066 0)
(288.852 1.50593 0)
(290.866 1.40094 0)
(292.099 1.23815 0)
(292.885 1.08108 0)
(293.65 0.782304 -9.53574e-020)
(294.528 0.41576 9.80767e-020)
(295.365 0.0452975 0)
(295.966 -0.305568 0)
(296.17 -0.583508 1.23323e-019)
(296.013 -0.678319 -1.39921e-019)
(295.679 -0.55068 0)
(295.345 -0.246958 1.69739e-019)
(295.146 0.263201 -1.81852e-019)
(295.16 0.833992 0)
(295.349 1.40181 0)
(295.584 1.84823 0)
(295.718 2.21315 0)
(295.601 2.58573 -2.22255e-019)
(295.074 3.03609 2.2824e-019)
(293.96 3.63191 2.34764e-019)
(292.029 4.23748 1.25897e-021)
(288.974 5.08648 -2.44247e-019)
(283.968 6.2601 2.54289e-019)
(277.877 10.5587 -2.56537e-019)
(272.308 14.5796 2.65978e-019)
(267.827 19.8103 -5.43087e-019)
(2.98674e-008 -2.66882e-009 0)
(2.67027e-007 -2.20128e-008 3.15924e-021)
(1.71416e-006 -1.25723e-007 -3.24661e-021)
(1.15107e-005 -7.40036e-007 0)
(6.52838e-005 -3.69594e-006 0)
(0.000369289 -1.80738e-005 0)
(0.00181618 -7.712e-005 0)
(0.00857674 -0.000309343 0)
(0.0358283 -0.00110213 1.52923e-020)
(0.139144 -0.00341555 -1.57194e-020)
(0.472589 -0.011495 0)
(1.41176 -0.028989 0)
(3.65794 -0.0651904 3.36772e-020)
(8.35536 -0.126317 -3.50515e-020)
(16.7242 -0.234821 -3.45165e-020)
(29.4517 -0.364886 2.01716e-021)
(46.0447 -0.511591 3.73495e-020)
(65.0498 -0.65971 0)
(85.0736 -0.810893 3.51619e-020)
(105.113 -0.911759 -3.82322e-020)
(124.692 -1.04395 0)
(143.716 -1.11714 3.58081e-020)
(161.924 -1.2672 -7.46566e-020)
(179.407 -1.31894 3.91862e-020)
(195.844 -1.44872 -3.66515e-020)
(211.279 -1.49165 3.93492e-020)
(225.701 -1.53853 -7.55148e-020)
(238.858 -1.57738 4.15998e-021)
(250.589 -1.64818 8.14039e-020)
(260.869 -1.75759 0)
(269.777 -1.70699 0)
(277.329 -1.77196 0)
(283.218 -1.77612 -8.53746e-020)
(287.166 -1.54186 8.94723e-020)
(289.951 -1.46809 0)
(292.053 -1.48369 -9.15921e-020)
(293.293 -1.45914 9.37841e-020)
(294.015 -1.38065 -9.58425e-020)
(294.66 -1.39356 5.31098e-024)
(295.407 -1.44305 -5.13285e-024)
(296.124 -1.50124 -1.63283e-023)
(296.618 -1.56999 -7.69742e-024)
(296.725 -1.68551 1.2773e-019)
(296.45 -1.80255 -1.45086e-019)
(295.944 -1.88579 1.6145e-019)
(295.366 -1.93646 0)
(294.86 -1.91828 0)
(294.537 -1.92296 0)
(294.458 -1.87752 0)
(294.58 -1.79885 0)
(294.745 -1.7256 0)
(294.723 -1.67993 -2.29611e-019)
(294.312 -1.58767 4.72113e-019)
(293.353 -1.30491 5.72083e-022)
(291.699 -0.727791 -2.4737e-019)
(289.124 0.479718 0)
(284.853 2.30614 0)
(279.221 7.44481 0)
(273.665 13.1676 0)
(269.431 19.4712 -2.80883e-019)
(2.94038e-008 -2.75963e-009 0)
(2.6328e-007 -2.2643e-008 -3.26777e-021)
(1.68515e-006 -1.28139e-007 1.00744e-020)
(1.13276e-005 -7.43897e-007 -6.902e-021)
(6.41338e-005 -3.62976e-006 0)
(0.000363174 -1.71635e-005 1.4578e-020)
(0.00178512 -6.94513e-005 -2.99621e-020)
(0.00844004 -0.00025765 1.53955e-020)
(0.0352765 -0.000812334 1.58177e-020)
(0.137175 -0.0020074 -1.62593e-020)
(0.466612 -0.00597289 -1.66704e-020)
(1.39643 -0.00991315 5.13151e-020)
(3.62429 -0.0100038 -7.01362e-020)
(8.29066 0.0128577 3.6256e-020)
(16.6188 0.0565117 0)
(29.3066 0.169042 0)
(45.8736 0.346599 0)
(64.8591 0.550733 -3.62139e-020)
(84.8644 0.727177 3.93534e-020)
(104.86 0.852843 -3.65675e-020)
(124.384 0.990051 3.97379e-020)
(143.355 1.12527 3.70586e-020)
(161.447 1.21355 -4.00318e-020)
(178.871 1.52871 0)
(195.273 1.51983 0)
(210.561 1.54841 0)
(224.828 1.64868 0)
(237.908 1.80175 0)
(249.601 1.90791 0)
(259.828 1.84951 -8.13327e-020)
(268.695 1.8576 8.59441e-020)
(276.199 1.6381 -8.55472e-020)
(282.038 1.58025 9.03319e-020)
(285.964 1.4744 0)
(288.695 1.41129 9.35375e-020)
(290.807 1.21353 -9.5486e-020)
(292.168 1.03247 9.67923e-020)
(293.054 0.851912 -9.92358e-020)
(293.901 0.594279 0)
(294.889 0.260239 -1.04652e-019)
(295.876 -0.0863968 -1.49134e-023)
(296.65 -0.424521 -2.08131e-024)
(297.016 -0.678116 1.3038e-019)
(296.961 -0.789928 0)
(296.618 -0.749657 0)
(296.15 -0.437806 -1.80588e-019)
(295.703 0.0695947 1.93506e-019)
(295.404 0.658596 0)
(295.285 1.24679 2.13838e-019)
(295.266 1.74081 -4.4441e-019)
(295.249 2.10365 -6.45534e-023)
(295.104 2.42598 2.37018e-019)
(294.676 2.77794 0)
(293.773 3.24019 0)
(292.182 3.89766 2.57551e-019)
(289.651 4.85317 -5.25266e-019)
(285.58 5.94711 -3.49207e-021)
(280.246 9.63901 5.52644e-019)
(274.781 14.8693 -2.8261e-019)
(270.814 20.544 0)
(2.89431e-008 -2.84044e-009 0)
(2.59523e-007 -2.33617e-008 -3.37992e-021)
(1.65559e-006 -1.3295e-007 3.47339e-021)
(1.11361e-005 -7.7985e-007 -7.13888e-021)
(6.28932e-005 -3.87561e-006 7.3363e-021)
(0.000356291 -1.88417e-005 0)
(0.00174845 -7.97838e-005 1.54951e-020)
(0.00826858 -0.000317112 -3.18468e-020)
(0.0345363 -0.00111556 1.63644e-020)
(0.134367 -0.00339988 1.68039e-020)
(0.457478 -0.0113478 -1.72836e-020)
(1.37089 -0.0279591 0)
(3.5619 -0.06201 0)
(8.16001 -0.116202 0)
(16.3845 -0.215233 0)
(28.9445 -0.328283 3.71763e-020)
(45.3817 -0.453834 -7.73057e-020)
(64.2658 -0.582769 7.79209e-020)
(84.2056 -0.720298 -7.83835e-020)
(104.191 -0.805206 4.09403e-020)
(123.73 -0.928357 3.8075e-020)
(142.725 -0.96291 -4.13564e-020)
(160.916 -1.13605 0)
(178.386 -1.12554 0)
(194.812 -1.26353 0)
(210.257 -1.30767 0)
(224.705 -1.3395 0)
(237.905 -1.35667 0)
(249.68 -1.41569 4.1616e-020)
(260.018 -1.51614 -8.57953e-020)
(268.99 -1.48342 4.44148e-020)
(276.647 -1.54693 0)
(282.691 -1.53759 0)
(286.778 -1.43784 -9.42924e-020)
(289.659 -1.32967 9.1442e-022)
(291.867 -1.25711 5.81888e-022)
(293.256 -1.30937 3.38554e-022)
(294.126 -1.29441 1.29335e-022)
(294.927 -1.30105 1.05131e-019)
(295.876 -1.38252 -1.08088e-019)
(296.857 -1.48109 2.23728e-019)
(297.663 -1.59857 -1.18959e-019)
(298.1 -1.70598 0)
(298.115 -1.8252 0)
(297.8 -1.93431 1.70698e-019)
(297.272 -1.89347 -1.8659e-019)
(296.648 -1.8244 0)
(296.078 -1.77246 -2.11507e-019)
(295.686 -1.66655 4.42305e-019)
(295.493 -1.51158 -2.29703e-019)
(295.402 -1.45755 2.37647e-019)
(295.214 -1.40888 -2.4505e-019)
(294.742 -1.31086 -2.52391e-019)
(293.838 -1.05438 2.58888e-019)
(292.365 -0.398456 2.66075e-019)
(290.113 0.709528 -2.70662e-019)
(286.553 2.45686 0)
(281.688 6.86149 0)
(276.249 13.1511 0)
(272.365 19.868 0)
(2.84964e-008 -2.9081e-009 0)
(2.55949e-007 -2.38434e-008 0)
(1.628e-006 -1.35053e-007 0)
(1.09625e-005 -7.86232e-007 0)
(6.18005e-005 -3.85657e-006 0)
(0.000350468 -1.83757e-005 0)
(0.0017187 -7.53022e-005 0)
(0.00813678 -0.000284704 0)
(0.0339995 -0.000923492 0)
(0.132436 -0.00243138 0)
(0.451556 -0.00739044 0)
(1.35553 -0.0138916 0)
(3.52774 -0.0200475 0)
(8.09368 -0.00681253 0)
(16.2753 0.0186214 0)
(28.7926 0.110552 0)
(45.2018 0.268528 0)
(64.0678 0.461104 0)
(83.9963 0.628779 0)
(103.944 0.745866 0)
(123.436 0.868395 0)
(142.383 1.00842 0)
(160.462 1.06418 -3.98577e-020)
(177.887 1.38133 4.34387e-020)
(194.29 1.37551 0)
(209.598 1.38019 0)
(223.902 1.47404 0)
(237.033 1.62022 0)
(248.783 1.72513 0)
(259.087 1.6602 0)
(268.04 1.65587 0)
(275.654 1.46785 0)
(281.66 1.39289 -4.72425e-020)
(285.751 1.35274 4.95758e-020)
(288.604 1.34855 0)
(290.842 1.08731 0)
(292.375 0.838056 0)
(293.449 0.619874 0)
(294.486 0.379167 0)
(295.703 0.0499404 0)
(296.982 -0.28214 0)
(298.101 -0.579272 1.22257e-019)
(298.842 -0.789412 -1.36858e-019)
(299.146 -0.913207 0)
(299.095 -0.896901 0)
(298.791 -0.615514 0)
(298.337 -0.1428 0)
(297.877 0.438417 -2.18236e-019)
(297.484 1.02595 2.28542e-019)
(297.111 1.58435 0)
(296.739 2.02747 0)
(296.303 2.34212 0)
(295.674 2.62811 0)
(294.693 3.03665 0)
(293.152 3.63544 0)
(290.839 4.38367 0)
(287.376 5.59872 0)
(282.774 8.80346 0)
(277.482 13.9917 0)
(273.777 20.3602 0)
(2.80578e-008 -2.96434e-009 0)
(2.52433e-007 -2.43243e-008 0)
(1.60063e-006 -1.3814e-007 3.71558e-021)
(1.07878e-005 -8.08545e-007 -3.81833e-021)
(6.06778e-005 -4.00836e-006 0)
(0.00034431 -1.94199e-005 0)
(0.00168611 -8.18948e-005 0)
(0.00798565 -0.00032377 0)
(0.0333504 -0.00112891 -1.75015e-020)
(0.129975 -0.00340969 3.5966e-020)
(0.443568 -0.0112631 -1.84888e-020)
(1.3332 -0.0272474 0)
(3.4732 -0.05967 0)
(7.97904 -0.108041 0)
(16.0689 -0.19925 0)
(28.4721 -0.297124 -3.98e-020)
(44.763 -0.402886 2.80858e-021)
(63.5328 -0.51251 4.3277e-020)
(83.393 -0.635808 0)
(103.326 -0.709025 0)
(122.829 -0.827921 4.07728e-020)
(141.795 -0.823869 -4.4286e-020)
(159.972 -1.02684 0)
(177.427 -0.9484 0)
(193.839 -1.08918 0)
(209.298 -1.14187 0)
(223.774 -1.15479 4.32761e-020)
(237.007 -1.15743 -2.40457e-021)
(248.816 -1.19093 -4.67251e-020)
(259.208 -1.2908 0)
(268.251 -1.27145 0)
(276.01 -1.35045 0)
(282.204 -1.33805 0)
(286.437 -1.32933 5.04389e-020)
(289.414 -1.162 -5.00753e-022)
(291.742 -1.05632 -1.05168e-019)
(293.318 -1.17859 5.36087e-020)
(294.401 -1.21433 0)
(295.436 -1.2426 5.6159e-020)
(296.665 -1.36443 -5.77343e-020)
(297.994 -1.50382 -1.19332e-019)
(299.206 -1.66637 1.26034e-019)
(300.078 -1.76206 0)
(300.523 -1.88029 0)
(300.583 -1.9468 0)
(300.317 -1.82383 0)
(299.794 -1.68496 0)
(299.155 -1.53959 0)
(298.563 -1.39852 -2.36522e-019)
(298.081 -1.1831 -4.49369e-023)
(297.646 -1.05377 5.08639e-019)
(297.125 -0.970877 1.195e-022)
(296.387 -0.830197 -2.69843e-019)
(295.316 -0.562371 0)
(293.773 -0.0492585 0)
(291.612 0.954293 -2.91165e-019)
(288.469 2.68599 2.96285e-019)
(284.217 6.50311 0)
(279.015 12.2344 3.15167e-019)
(275.35 19.4834 -3.19901e-019)
(2.76327e-008 -3.01188e-009 0)
(2.49063e-007 -2.46622e-008 0)
(1.5747e-006 -1.39732e-007 -3.84278e-021)
(1.06253e-005 -8.14446e-007 1.18472e-020)
(5.96534e-005 -4.00893e-006 -4.71453e-027)
(0.000338846 -1.91915e-005 -1.66819e-020)
(0.00165806 -7.93353e-005 1.71432e-020)
(0.0078608 -0.000303828 -8.8087e-021)
(0.032838 -0.00100367 0)
(0.128119 -0.00275643 0)
(0.437824 -0.00845629 1.90786e-020)
(1.31814 -0.0170291 -1.96524e-020)
(3.43934 -0.0281864 1.99438e-020)
(7.9127 -0.0233122 -2.0745e-020)
(15.9586 -0.0137124 0)
(28.3171 0.0592936 0)
(44.5782 0.197852 0)
(63.3309 0.377868 0)
(83.1859 0.5361 0)
(103.087 0.648984 -4.1935e-020)
(122.551 0.758512 4.55568e-020)
(141.472 0.91086 0)
(159.541 0.931711 0)
(176.966 1.24905 -4.3383e-020)
(193.364 1.24273 4.65294e-020)
(208.695 1.22469 0)
(223.037 1.31142 -4.47792e-020)
(236.21 1.44888 9.38921e-020)
(248.006 1.5579 -4.83963e-020)
(258.379 1.49381 0)
(267.417 1.47055 0)
(275.138 1.32782 -4.895e-020)
(281.294 1.22238 5.17223e-020)
(285.54 1.15103 5.22008e-020)
(288.514 1.2198 -5.32716e-022)
(290.867 0.956519 -5.46004e-020)
(292.579 0.642688 5.52535e-020)
(293.876 0.389814 -8.68535e-023)
(295.145 0.131855 -1.85708e-023)
(296.63 -0.220236 2.77463e-024)
(298.232 -0.549362 -1.23226e-019)
(299.722 -0.821453 1.29646e-019)
(300.858 -0.965168 -1.09743e-024)
(301.558 -1.10265 -1.64303e-019)
(301.871 -1.11248 9.24897e-020)
(301.84 -0.818166 0)
(301.518 -0.362309 -2.20049e-019)
(301.035 0.256158 4.66639e-019)
(300.48 0.901736 -2.44461e-019)
(299.837 1.51718 0)
(299.134 1.97368 2.631e-019)
(298.382 2.248 -2.71297e-019)
(297.481 2.50763 0)
(296.299 2.84688 0)
(294.672 3.33708 -2.94344e-019)
(292.434 4.1609 6.01006e-019)
(289.336 5.32571 -3.06396e-019)
(285.3 8.21164 0)
(280.284 12.7222 0)
(276.777 19.5727 0)
(2.72185e-008 -3.04964e-009 0)
(2.45781e-007 -2.49675e-008 0)
(1.54936e-006 -1.41641e-007 3.97424e-021)
(1.04652e-005 -8.27762e-007 -4.08414e-021)
(5.86311e-005 -4.10009e-006 8.39417e-021)
(0.000333289 -1.98242e-005 -8.62631e-021)
(0.00162882 -8.34603e-005 0)
(0.00772612 -0.000329064 0)
(0.0322622 -0.00114075 1.872e-020)
(0.125941 -0.00343582 -1.92423e-020)
(0.430762 -0.0112093 0)
(1.29843 -0.0267952 2.02096e-020)
(3.39124 -0.0580104 -2.08874e-020)
(7.81136 -0.101742 2.09511e-020)
(15.7756 -0.186362 -2.20073e-020)
(28.032 -0.270967 0)
(44.1854 -0.358563 0)
(62.8473 -0.448841 4.2974e-020)
(82.6323 -0.557225 -8.98375e-020)
(102.516 -0.621225 3.51991e-021)
(121.985 -0.734968 4.71423e-020)
(140.922 -0.701928 4.39871e-020)
(159.086 -0.917111 -4.74933e-020)
(176.528 -0.780318 0)
(192.923 -0.923497 0)
(208.397 -0.988014 4.53794e-020)
(222.901 -0.98279 -4.91175e-020)
(236.161 -0.970732 0)
(247.998 -0.982394 0)