/*--------------------------------*- C++ -*----------------------------------*\
| =========                 |                                                 |
| \\      /  F ield         | OpenFOAM: The Open Source CFD Toolbox           |
|  \\    /   O peration     | Version:  5.x                                   |
|   \\  /    A nd           | Web:      www.OpenFOAM.org                      |
|    \\/     M anipulation  |                                                 |
\*---------------------------------------------------------------------------*/
/*   Windows 32 and 64 bit porting by blueCAPE: http://www.bluecape.com.pt   *\
|  Based on Windows porting (2.0.x v4) by Symscape: http://www.symscape.com   |
\*---------------------------------------------------------------------------*/
FoamFile
{
    version     2.0;
    format      ascii;
    class       volScalarField;
    location    "0.005";
    object      mag(U);
}
// * * * * * * * * * * * * * * * * * * * * * * * * * * * * * * * * * * * * * //

dimensions      [0 1 -1 0 0 0 0];

internalField   nonuniform List<scalar> 
1000
(
2.57022e-012
2.30203e-012
2.35145e-012
2.12315e-012
2.18102e-012
2.01518e-012
2.06038e-012
1.92985e-012
2.05975e-012
1.94522e-012
2.13646e-012
1.9564e-012
2.12192e-012
1.87942e-012
1.99515e-012
1.7016e-012
1.80974e-012
1.94348e-012
1.64512e-012
1.64257e-012
1.41212e-012
1.60888e-012
1.35884e-012
1.85851e-012
1.40415e-012
1.63708e-012
1.51297e-012
1.94541e-012
1.54569e-012
1.50413e-012
1.15187e-012
1.45409e-012
1.18225e-012
2.06419e-012
9.89176e-013
1.80374e-012
7.68836e-013
1.07517e-012
7.67315e-013
7.04194e-013
6.78182e-013
7.11391e-013
1.08495e-012
1.16357e-012
1.16035e-012
8.44364e-013
1.11237e-012
7.60191e-013
1.71892e-012
1.02279e-012
9.80544e-013
2.35426e-013
3.87538e-013
1.84473e-013
3.43396e-013
2.71553e-013
2.99896e-013
2.3307e-013
3.58605e-013
2.66959e-013
2.29842e-013
1.35238e-013
7.55791e-014
5.60349e-013
3.89293e-013
1.74787e-013
4.01675e-013
5.04487e-013
4.98321e-013
6.92227e-013
5.99149e-014
2.44646e-013
5.34991e-013
5.76195e-013
9.73862e-013
1.14539e-012
1.19553e-012
1.68906e-012
1.76122e-012
3.31643e-012
7.34308e-012
1.68962e-011
4.52471e-011
1.16492e-010
3.0409e-010
7.8189e-010
1.98706e-009
4.98715e-009
1.23621e-008
3.02548e-008
7.30898e-008
1.74252e-007
4.09862e-007
9.50845e-007
2.17501e-006
4.90401e-006
1.08952e-005
2.38426e-005
5.13741e-005
0.000108951
0.000227317
0.000466387
0.000940508
0.00186318
0.00362393
0.00691636
0.0129439
0.023738
0.0426272
0.0748941
0.128635
0.215793
0.353261
0.563828
0.87666
1.3269
1.95402
2.79885
3.89945
5.28654
6.9796
8.98457
11.2938
13.888
16.7397
19.8171
23.0871
26.5179
30.0803
33.7494
37.504
41.3272
45.2051
49.1267
53.0833
57.0681
61.0757
65.1022
69.1443
73.1998
77.2668
81.3441
85.4306
89.5256
93.6285
97.7386
101.856
105.979
110.108
114.243
118.383
122.527
126.676
130.827
134.982
139.139
143.297
147.457
151.617
155.777
159.936
164.095
168.25
172.405
176.554
180.702
184.842
188.982
193.112
197.237
201.357
205.466
209.57
213.665
217.748
221.824
225.889
229.94
233.979
238.008
242.02
246.016
249.999
253.965
257.91
261.837
265.744
269.628
273.487
277.321
281.126
284.902
288.644
292.35
296.016
299.639
303.215
306.738
310.203
313.601
316.928
320.174
323.331
326.386
329.325
332.137
334.804
337.311
339.637
341.761
343.658
345.304
346.679
347.759
348.523
348.96
349.034
348.773
348.247
347.478
346.499
345.344
344.057
342.676
341.215
339.668
338.025
336.27
334.38
332.333
330.11
327.699
325.106
322.352
319.476
316.529
313.567
310.645
307.809
305.093
302.522
300.108
297.856
295.762
293.824
292.036
290.395
288.891
287.517
286.213
284.902
283.578
282.249
280.919
279.599
278.301
277.038
275.843
274.769
273.878
273.236
272.809
272.217
271.481
270.952
270.511
269.996
269.309
268.41
267.26
265.843
264.158
262.206
260.02
257.586
254.929
252.166
249.252
246.144
242.89
239.51
236.016
232.431
228.78
225.078
221.298
217.328
212.968
208.021
202.577
196.688
189.951
181.556
171.309
160.675
151.312
143.416
136.449
129.745
123.85
4.7452e-012
4.9643e-012
3.95921e-012
4.70817e-012
4.16758e-012
3.09112e-012
4.92795e-012
2.30938e-012
5.45845e-012
2.22616e-012
5.6661e-012
2.44791e-012
4.46394e-012
3.2513e-012
3.11329e-012
2.92185e-012
3.34696e-012
3.45882e-012
3.32708e-012
3.37623e-012
3.061e-012
3.10675e-012
2.29827e-012
3.43388e-012
1.51479e-012
3.2461e-012
1.23638e-012
3.24358e-012
1.94255e-012
2.80072e-012
3.34824e-012
1.38502e-012
2.70652e-012
1.03385e-012
3.33012e-012
1.29443e-012
3.14872e-012
1.55566e-012
2.58968e-012
7.38385e-013
3.46717e-012
6.61961e-013
3.18023e-012
6.7525e-013
2.53369e-012
6.44199e-013
3.63007e-013
5.42771e-013
4.26398e-013
3.8053e-013
5.35126e-013
5.07783e-013
3.95562e-013
5.48137e-013
1.17813e-012
2.93598e-013
8.71976e-013
1.32135e-012
1.21224e-012
1.40746e-012
1.06444e-012
1.10715e-012
6.53826e-013
1.50379e-013
4.62573e-013
1.00195e-013
3.81978e-014
1.24088e-012
5.69543e-014
1.75976e-012
2.74218e-013
1.04098e-012
3.08338e-013
1.33698e-012
1.1894e-013
5.60419e-013
4.82093e-013
5.7217e-014
7.08876e-013
2.71859e-013
2.21144e-013
2.07677e-012
4.01632e-012
1.32279e-011
3.23757e-011
8.44884e-011
2.1057e-010
5.26555e-010
1.29258e-009
3.13822e-009
7.51754e-009
1.7777e-008
4.14709e-008
9.54157e-008
2.16433e-007
4.83834e-007
1.06553e-006
2.31075e-006
4.93239e-006
1.03578e-005
2.13869e-005
4.33958e-005
8.64745e-005
0.000169106
0.000324275
0.000609203
0.00112011
0.00201324
0.00353241
0.00604051
0.0100472
0.0162156
0.0253168
0.038086
0.0549266
0.0754354
0.0978726
0.119394
0.140724
0.181502
0.287469
0.510039
0.899263
1.5034
2.36757
3.52688
4.99716
6.77184
8.82826
11.1355
13.6588
16.3636
19.2193
22.1999
25.284
28.4541
31.6963
35.0001
38.3567
41.7592
45.202
48.6808
52.1919
55.7323
59.2993
62.8907
66.5044
70.1386
73.7918
77.4623
81.1488
84.8502
88.565
92.2921
96.0304
99.7788
103.536
107.302
111.075
114.854
118.639
122.428
126.221
130.017
133.815
137.615
141.416
145.217
149.017
152.817
156.613
160.409
164.197
167.986
171.763
175.54
179.308
183.065
186.818
190.558
194.285
198.002
201.702
205.384
209.05
212.695
216.314
219.908
223.474
227.006
230.499
233.951
237.357
240.71
244.003
247.23
250.384
253.454
256.43
259.304
262.065
264.701
267.2
269.551
271.745
273.773
275.628
277.305
278.805
280.131
281.29
282.295
283.16
283.904
284.544
285.102
285.593
286.036
286.441
286.814
287.161
287.473
287.729
287.939
288.138
288.343
288.553
288.771
288.997
289.233
289.475
289.725
290
290.328
290.752
291.332
292.039
292.701
293.226
293.649
294.017
294.353
294.667
294.963
295.234
295.481
295.705
295.907
296.089
296.254
296.409
296.557
296.694
296.818
296.926
297.019
297.098
297.168
297.258
297.401
297.631
297.992
298.393
298.681
298.9
299.143
299.434
299.792
300.197
300.61
301.002
301.352
301.651
301.895
302.087
302.232
302.337
302.41
302.458
302.487
302.501
302.505
302.501
302.491
302.476
302.454
302.425
302.388
302.342
302.286
302.221
302.148
302.074
302.018
301.975
301.97
302.069
302.403
303.162
305.362
305.984
306.902
307.617
307.93
307.988
307.926
307.841
307.743
307.636
307.541
307.454
307.373
307.293
307.215
307.137
307.06
306.983
306.906
306.83
306.754
306.678
306.603
306.528
306.453
306.379
306.305
306.231
306.157
306.084
306.011
305.938
305.865
305.792
305.719
305.646
305.574
305.501
305.429
305.356
305.284
305.211
305.139
305.067
304.995
304.923
304.851
304.778
304.706
304.634
304.561
304.487
304.412
304.335
304.255
304.173
304.085
303.993
303.894
303.787
303.67
303.542
303.399
303.242
303.071
302.884
302.681
302.468
302.243
302.015
301.784
301.557
301.34
301.138
300.959
300.805
300.686
300.601
300.556
300.534
300.554
300.622
300.717
300.86
301.037
301.236
301.458
301.694
301.939
302.189
302.442
302.694
302.943
303.189
303.429
303.661
303.887
304.103
304.308
304.504
304.665
78.7793
76.7841
73.2551
69.281
65.5666
62.2172
59.0877
56.0461
52.8274
48.9102
43.4532
35.9483
26.7371
17.3214
10.7393
7.58071
5.10829
2.78867
1.09112
0.329349
0.0817351
0.0187353
0.00441576
0.00109297
0.000278923
7.18355e-005
1.8402e-005
4.64986e-006
1.15376e-006
2.80468e-007
6.67165e-008
1.5523e-008
3.53182e-009
7.8665e-010
1.70828e-010
3.65997e-011
7.22277e-012
1.58296e-012
5.94e-013
5.29261e-013
8.23409e-013
8.79073e-013
1.0711e-012
7.98565e-013
1.28214e-012
8.41402e-013
1.59794e-012
1.02901e-012
1.36419e-012
8.10983e-013
1.02249e-012
8.6122e-013
8.77169e-013
5.19119e-013
7.29476e-013
5.07606e-013
4.71521e-013
4.93925e-013
4.84495e-013
3.97029e-013
6.85889e-013
6.97463e-013
6.71221e-013
9.87142e-013
6.22632e-013
5.1234e-013
3.07935e-013
6.22861e-013
2.44559e-013
4.77183e-013
5.80646e-013
6.66242e-013
1.00203e-012
1.17192e-012
1.89915e-012
1.61083e-012
2.33502e-012
2.15325e-012
2.58213e-012
2.28203e-012
2.30141e-012
1.93345e-012
2.46967e-012
2.07013e-012
2.25577e-012
1.83567e-012
2.34978e-012
1.78831e-012
2.80903e-012
1.54377e-012
2.4486e-012
1.53589e-012
2.10787e-012
1.75942e-012
2.34696e-012
1.37959e-012
2.17582e-012
8.65054e-013
1.47865e-012
1.00178e-012
1.47667e-012
1.50385e-012
1.78969e-012
1.33732e-012
1.75408e-012
1.17663e-012
1.75692e-012
1.07619e-012
1.59193e-012
1.77515e-012
1.58943e-012
1.83344e-012
1.32974e-012
1.89191e-012
1.56138e-012
1.70233e-012
1.3913e-012
1.41403e-012
1.05193e-012
1.93406e-012
6.04442e-013
1.63951e-012
6.2793e-013
1.38693e-012
7.4674e-013
1.91624e-012
1.06169e-012
1.78258e-012
1.19955e-012
1.81406e-012
9.91605e-013
1.79942e-012
1.32489e-012
1.40195e-012
1.70859e-012
1.73167e-012
1.88318e-012
1.89639e-012
2.47044e-012
2.04845e-012
2.60857e-012
2.02494e-012
2.39331e-012
1.77439e-012
2.27993e-012
1.74032e-012
2.1771e-012
1.39091e-012
1.77134e-012
1.74608e-012
305.434
305.537
305.524
305.424
305.239
304.938
304.524
304.013
303.5
303.097
302.821
302.464
301.772
300.541
298.097
292.855
280.217
245.057
164.49
68.2987
18.6152
4.07917
0.797812
0.149869
0.0278591
0.00515943
0.000952832
0.000175413
3.21703e-005
5.87302e-006
1.0664e-006
1.92425e-007
3.44771e-008
6.12945e-009
1.08086e-009
1.89855e-010
3.27327e-011
7.40705e-012
1.59436e-012
1.7759e-012
1.73517e-012
7.41818e-013
2.70426e-012
5.76501e-013
2.19246e-012
9.48156e-013
1.40864e-012
1.691e-012
9.63056e-013
1.04495e-012
1.41725e-012
2.58745e-013
2.08755e-012
7.07809e-013
1.99128e-012
6.60973e-013
1.38058e-012
4.20742e-013
7.09369e-013
6.51226e-013
3.46556e-013
7.57761e-013
4.0025e-013
3.22255e-013
3.09721e-013
4.25699e-013
6.29773e-013
7.38815e-013
3.38737e-013
1.22504e-012
9.58978e-013
1.1124e-012
1.21043e-012
4.58837e-013
3.82025e-013
1.90974e-013
1.77615e-013
3.57975e-013
6.99823e-013
3.41705e-013
1.16372e-012
2.97248e-013
1.45977e-012
2.20812e-014
1.34928e-012
4.37375e-013
6.03271e-013
1.09433e-012
2.98626e-013
2.16467e-012
4.47502e-013
1.84133e-012
6.60102e-013
1.08333e-012
4.19194e-013
7.30952e-013
9.43479e-014
8.9356e-013
6.12464e-013
1.22293e-012
6.30268e-013
1.43357e-012
3.43283e-013
7.35395e-013
1.66142e-013
2.34777e-013
3.01368e-013
5.08259e-013
4.27565e-013
9.02472e-013
8.48487e-013
7.86959e-013
9.46793e-013
1.20854e-012
4.49666e-013
6.59017e-013
1.0224e-012
3.5755e-013
1.92751e-012
7.6055e-013
2.05368e-012
1.40604e-012
1.8423e-012
1.8944e-012
2.01197e-012
1.53435e-012
2.3219e-012
9.26972e-013
2.41538e-012
1.40033e-012
3.45198e-012
1.69079e-012
2.96884e-012
1.56004e-012
2.24213e-012
2.09671e-012
2.16747e-012
1.59025e-012
3.01079e-012
6.91834e-013
3.73066e-012
1.03358e-012
3.7507e-012
2.01562e-012
2.85411e-012
2.32067e-012
2.5379e-012
3.29855e-012
2.57427e-012
2.49289e-012
)
;

boundaryField
{
    inlet
    {
        type            calculated;
        value           nonuniform List<scalar> 2(4.7452e-012 2.57022e-012);
    }
    outlet
    {
        type            calculated;
        value           nonuniform List<scalar> 2(2.49289e-012 1.74608e-012);
    }
    bottom
    {
        type            symmetryPlane;
    }
    top
    {
        type            symmetryPlane;
    }
    obstacle
    {
        type            calculated;
        value           nonuniform List<scalar> 
102
(
123.85
78.7793
305.984
306.902
307.617
307.93
307.988
307.926
307.841
307.743
307.636
307.541
307.454
307.373
307.293
307.215
307.137
307.06
306.983
306.906
306.83
306.754
306.678
306.603
306.528
306.453
306.379
306.305
306.231
306.157
306.084
306.011
305.938
305.865
305.792
305.719
305.646
305.574
305.501
305.429
305.356
305.284
305.211
305.139
305.067
304.995
304.923
304.851
304.778
304.706
304.634
304.561
304.487
304.412
304.335
304.255
304.173
304.085
303.993
303.894
303.787
303.67
303.542
303.399
303.242
303.071
302.884
302.681
302.468
302.243
302.015
301.784
301.557
301.34
301.138
300.959
300.805
300.686
300.601
300.556
300.534
300.554
300.622
300.717
300.86
301.037
301.236
301.458
301.694
301.939
302.189
302.442
302.694
302.943
303.189
303.429
303.661
303.887
304.103
304.308
304.504
304.665
)
;
    }
    defaultFaces
    {
        type            empty;
    }
}


// ************************************************************************* //
