/*--------------------------------*- C++ -*----------------------------------*\
| =========                 |                                                 |
| \\      /  F ield         | OpenFOAM: The Open Source CFD Toolbox           |
|  \\    /   O peration     | Version:  5.x                                   |
|   \\  /    A nd           | Web:      www.OpenFOAM.org                      |
|    \\/     M anipulation  |                                                 |
\*---------------------------------------------------------------------------*/
/*   Windows 32 and 64 bit porting by blueCAPE: http://www.bluecape.com.pt   *\
|  Based on Windows porting (2.0.x v4) by Symscape: http://www.symscape.com   |
\*---------------------------------------------------------------------------*/
FoamFile
{
    version     2.0;
    format      ascii;
    class       volScalarField;
    location    "0.005";
    object      p;
}
// * * * * * * * * * * * * * * * * * * * * * * * * * * * * * * * * * * * * * //

dimensions      [1 -1 -2 0 0 0 0];

internalField   nonuniform List<scalar> 
1000
(
100000
100000
100000
100000
100000
100000
100000
100000
100000
100000
100000
100000
100000
100000
100000
100000
100000
100000
100000
100000
100000
100000
100000
100000
100000
100000
100000
100000
100000
100000
100000
100000
100000
100000
100000
100000
100000
100000
100000
100000
100000
100000
100000
100000
100000
100000
100000
100000
100000
100000
100000
100000
100000
100000
100000
100000
100000
100000
100000
100000
100000
100000
100000
100000
100000
100000
100000
100000
100000
100000
100000
100000
100000
100000
100000
100000
100000
100000
100000
100000
100000
100000
100000
100000
100000
100000
100000
100000
100000
100000
100000
100000
100000
100000
100000
100000
100000
100000
100000
100000
99999.9
99999.8
99999.7
99999.3
99998.7
99997.5
99995.3
99991.3
99984.4
99972.6
99952.9
99920.8
99870
99792.2
99676.4
99509.6
99277
98963.7
98556
98043.1
97419
96682.9
95839.6
94898
93870.5
92770.6
91612.2
90408.1
89170.4
87909
86632
85346.2
84056.8
82767.7
81482.3
80202.8
78931
77668.3
76415.6
75173.7
73943
72723.8
71516.3
70320.8
69137.2
67965.7
66806.2
65659
64523.9
63401
62290.4
61192.1
60106.2
59032.6
57971.6
56923
55887
54863.6
53852.9
52854.8
51869.4
50896.8
49936.8
48989.8
48055.3
47133.8
46224.9
45328.9
44445.6
43575.1
42717.2
41872.2
41039.6
40219.8
39412.7
38618.1
37835.8
37066.4
36309.5
35564.7
34832.3
34112.9
33405.3
32710.1
32027.4
31357.1
30699.1
30053
29419.8
28798.7
28190.2
27594.1
27010.3
26439.7
25881.4
25336.8
24804.7
24286.3
23781.7
23290.8
22815.1
22353.6
21908.2
21478.2
21065.6
20670.6
20294
19937.7
19601.3
19287.8
18997
18731.8
18492.5
18281
18098.4
17944.9
17820.5
17731.2
17664.9
17620.5
17595
17585.3
17588.1
17599
17615.6
17638
17667.1
17704
17750.1
17807
17876.2
17959.4
18056.8
18167.5
18289.6
18419.8
18554.2
18688.3
18818.5
18941.3
19054.4
19156.1
19245.4
19321.8
19385.4
19436.5
19474.9
19500.5
19515.5
19517.7
19516.8
19514.7
19511.3
19506.4
19499.9
19491.8
19482.1
19470.9
19458
19441.9
19422.7
19403.6
19333.6
19307.3
19278
19239.6
19187.8
19132.6
19073.2
19009.7
18942.3
18872.3
18798.1
18723.7
18644.3
18562.6
18486
18399.7
18313.2
18226.1
18137.9
18048.4
17957
17862.5
17764.2
17663.6
17567.9
17491.1
17449.5
17446
17457.2
17505.8
17638.9
17919.5
18252.9
18523.2
18687
18786.6
18846.3
18895.9
100000
100000
100000
100000
100000
100000
100000
100000
100000
100000
100000
100000
100000
100000
100000
100000
100000
100000
100000
100000
100000
100000
100000
100000
100000
100000
100000
100000
100000
100000
100000
100000
100000
100000
100000
100000
100000
100000
100000
100000
100000
100000
100000
100000
100000
100000
100000
100000
100000
100000
100000
100000
100000
100000
100000
100000
100000
100000
100000
100000
100000
100000
100000
100000
100000
100000
100000
100000
100000
100000
100000
100000
100000
100000
100000
100000
100000
100000
100000
100000
100000
100000
100000
100000
100000
100000
100000
100000
100000
100000
100000
100000
100000
100000
100000
100000
100000
100000
100000
100000
100000
100000
100000
100000
100000
100000
100000
100001
100001
100002
100004
100006
100009
100013
100019
100025
100031
100033
100026
100002
99954.8
99867.8
99722.2
99499.2
99180.7
98753.9
98214.2
97565.9
96819.4
95988.4
95087.7
94131.4
93131.8
92099.6
91043.2
89969.5
88884
87790.8
86693.3
85594
84495.2
83398.3
82304.9
81216
80132.6
79055.4
77985.1
76922.3
75867.4
74821
73783.3
72754.9
71735.9
70726.7
69727.5
68738.5
67759.9
66792
65834.9
64888.7
63953.5
63029.4
62116.5
61215
60324.7
59445.9
58578.4
57722.4
56877.8
56044.8
55223
54413.1
53614
52827.4
52051.3
51287.6
50534.7
49793.4
49064.1
48345.9
47639.7
46945.2
46262.4
45591.6
44933
44286.6
43652.8
43031.6
42423.5
41828.8
41248
40681.2
40129.3
39592.8
39072.4
38568.8
38082.9
37615.6
37168.3
36741.7
36337
35955.5
35598.5
35267.1
34962.3
34684.9
34435.3
34213.8
34020.1
33853.3
33712
33594.2
33497.6
33419.4
33356.6
33306.6
33265.7
33232.5
33203.8
33177.7
33155.2
33135.5
33120.4
33112.5
33107.3
33100.7
33092.8
33083.8
33073.9
33063.4
33051.3
33038.1
33023
33003.4
32975.8
32934.8
32872.5
32798.8
32738.9
32691.7
32651.6
32615
32580.6
32547.8
32515.7
32485.4
32456.7
32429.8
32404.8
32381.8
32360.3
32339.5
32319.4
32300.2
32282.4
32266.2
32252.1
32240.5
32231.8
32224
32217.5
32206
32201.4
32160.3
32147.4
32133.6
32123.8
32116.7
32107.8
32098.2
32088.5
32079
32069.9
32061.1
32052.7
32044.5
32036.5
32028.6
32020.7
32012.8
32004.8
31996.8
31988.9
31981.3
31974.3
31967.9
31962.3
31957.6
31953.6
31950.5
31947.9
31944.2
31936.9
31926.3
31913.1
31894.7
31865.2
31814.6
31724.8
31577.2
31360.9
31277
31198.4
31154.4
31137.3
31135.1
31137
31139.2
31142.8
31145.8
31148
31149.6
31151.1
31152.4
31153.8
31155.2
31156.5
31157.9
31159.3
31160.7
31162.1
31163.4
31164.8
31166.1
31167.4
31168.6
31169.9
31171.1
31172.2
31173.4
31174.5
31175.5
31176.5
31177.5
31178.4
31179.3
31180.1
31180.8
31181.6
31182.2
31182.8
31183.4
31184
31184.5
31185
31185.5
31186
31186.5
31187.1
31187.9
31188.7
31189.8
31191.2
31192.9
31195.2
31197.8
31201.4
31205.7
31211.2
31217.9
31226.3
31235.9
31247.6
31261
31276.6
31293.6
31312.6
31332.7
31354.2
31375.8
31397.5
31418.4
31438
31455.4
31470.2
31481.8
31489.7
31493.2
31492.7
31491.4
31483.9
31472
31456.3
31436.6
31414.4
31390
31364.2
31337.4
31310.2
31282.7
31255.4
31228.5
31202.1
31176.5
31151.6
31127.8
31104.9
31083.3
31062.9
31044.1
13715.6
13671.7
13587.5
13492.7
13385.6
13257.9
13109.4
12942.1
12748.1
12507.9
12179.4
11738.5
11214.7
10672.8
10259.7
10078.1
10023
10005.4
9999.7
9998.76
9999.24
9999.7
9999.9
9999.97
9999.99
10000
10000
10000
10000
10000
10000
10000
10000
10000
10000
10000
10000
10000
10000
10000
10000
10000
10000
10000
10000
10000
10000
10000
10000
10000
10000
10000
10000
10000
10000
10000
10000
10000
10000
10000
10000
10000
10000
10000
10000
10000
10000
10000
10000
10000
10000
10000
10000
10000
10000
10000
10000
10000
10000
10000
10000
10000
10000
10000
10000
10000
10000
10000
10000
10000
10000
10000
10000
10000
10000
10000
10000
10000
10000
10000
10000
10000
10000
10000
10000
10000
10000
10000
10000
10000
10000
10000
10000
10000
10000
10000
10000
10000
10000
10000
10000
10000
10000
10000
10000
10000
10000
10000
10000
10000
10000
10000
10000
10000
10000
10000
10000
10000
10000
10000
10000
10000
10000
10000
10000
10000
10000
10000
10000
10000
30990.3
31003.2
31027.6
31057.8
31093
31134.5
31184.1
31232.7
31280.4
31308.2
31310.9
31279.9
31219.2
31117.7
30888.5
30378.9
29108.7
25627.5
17961.6
12770.2
10712.5
10147.1
10028
10005.2
10001
10000.2
10000
10000
10000
10000
10000
10000
10000
10000
10000
10000
10000
10000
10000
10000
10000
10000
10000
10000
10000
10000
10000
10000
10000
10000
10000
10000
10000
10000
10000
10000
10000
10000
10000
10000
10000
10000
10000
10000
10000
10000
10000
10000
10000
10000
10000
10000
10000
10000
10000
10000
10000
10000
10000
10000
10000
10000
10000
10000
10000
10000
10000
10000
10000
10000
10000
10000
10000
10000
10000
10000
10000
10000
10000
10000
10000
10000
10000
10000
10000
10000
10000
10000
10000
10000
10000
10000
10000
10000
10000
10000
10000
10000
10000
10000
10000
10000
10000
10000
10000
10000
10000
10000
10000
10000
10000
10000
10000
10000
10000
10000
10000
10000
10000
10000
10000
10000
10000
10000
10000
10000
10000
10000
10000
10000
)
;

boundaryField
{
    inlet
    {
        type            zeroGradient;
    }
    outlet
    {
        type            zeroGradient;
    }
    bottom
    {
        type            symmetryPlane;
    }
    top
    {
        type            symmetryPlane;
    }
    obstacle
    {
        type            zeroGradient;
    }
    defaultFaces
    {
        type            empty;
    }
}


// ************************************************************************* //
