/*--------------------------------*- C++ -*----------------------------------*\
| =========                 |                                                 |
| \\      /  F ield         | OpenFOAM: The Open Source CFD Toolbox           |
|  \\    /   O peration     | Version:  5.x                                   |
|   \\  /    A nd           | Web:      www.OpenFOAM.org                      |
|    \\/     M anipulation  |                                                 |
\*---------------------------------------------------------------------------*/
/*   Windows 32 and 64 bit porting by blueCAPE: http://www.bluecape.com.pt   *\
|  Based on Windows porting (2.0.x v4) by Symscape: http://www.symscape.com   |
\*---------------------------------------------------------------------------*/
FoamFile
{
    version     2.0;
    format      ascii;
    class       volScalarField;
    location    "0.0005";
    object      mag(U);
}
// * * * * * * * * * * * * * * * * * * * * * * * * * * * * * * * * * * * * * //

dimensions      [0 1 -1 0 0 0 0];

internalField   nonuniform List<scalar> 
100
(
3.84107e-014
6.21301e-015
1.44981e-014
2.08801e-012
1.04655e-010
4.44912e-009
1.62114e-007
5.20299e-006
0.000127166
0.00304564
0.0462704
0.790227
7.48482
60.5448
241.478
76.9695
7.83284
0.678019
0.0406138
0.00241695
1.40105e-014
4.62949e-014
7.41514e-014
1.81595e-012
8.62973e-011
3.58215e-009
1.28167e-007
4.06348e-006
9.76986e-005
0.00238589
0.0354501
0.648412
6.20386
56.5861
233.687
61.4728
5.23218
0.35446
0.0163186
0.000729049
6.02609e-005
3.52573e-005
1.89479e-005
1.01103e-005
5.34589e-006
2.80366e-006
1.45951e-006
7.54649e-007
3.87774e-007
1.98118e-007
1.00685e-007
5.09172e-008
2.56316e-008
1.28471e-008
6.4136e-009
3.18917e-009
1.57841e-009
7.76215e-010
3.74219e-010
1.63217e-010
4.55261e-013
1.05208e-013
1.0611e-014
8.46333e-014
5.66621e-014
3.09687e-014
1.37154e-014
1.32638e-013
1.92587e-014
1.12551e-013
5.47817e-014
1.09781e-014
1.11564e-013
6.8287e-014
1.02851e-013
2.61213e-014
7.52314e-014
8.05632e-014
1.60465e-014
9.23671e-014
4.71002e-011
4.10164e-012
4.37855e-013
1.71177e-013
7.08524e-014
4.83262e-014
1.17455e-013
1.47921e-013
1.19394e-013
7.0867e-014
8.14492e-014
2.15078e-014
3.14386e-014
2.1737e-013
2.20854e-014
1.15019e-014
1.07947e-013
9.66364e-014
9.871e-014
7.65359e-014
)
;

boundaryField
{
    inlet
    {
        type            calculated;
        value           nonuniform List<scalar> 2(1.40105e-014 3.84107e-014);
    }
    outlet
    {
        type            calculated;
        value           nonuniform List<scalar> 2(7.65359e-014 9.23671e-014);
    }
    bottom
    {
        type            symmetryPlane;
    }
    top
    {
        type            symmetryPlane;
    }
    obstacle
    {
        type            calculated;
        value           nonuniform List<scalar> 
22
(
0.00241695
4.55261e-013
6.02609e-005
3.52573e-005
1.89479e-005
1.01103e-005
5.34589e-006
2.80366e-006
1.45951e-006
7.54649e-007
3.87774e-007
1.98118e-007
1.00685e-007
5.09172e-008
2.56316e-008
1.28471e-008
6.4136e-009
3.18917e-009
1.57841e-009
7.76215e-010
3.74219e-010
1.63217e-010
)
;
    }
    defaultFaces
    {
        type            empty;
    }
}


// ************************************************************************* //
