/*--------------------------------*- C++ -*----------------------------------*\
| =========                 |                                                 |
| \\      /  F ield         | OpenFOAM: The Open Source CFD Toolbox           |
|  \\    /   O peration     | Version:  5.x                                   |
|   \\  /    A nd           | Web:      www.OpenFOAM.org                      |
|    \\/     M anipulation  |                                                 |
\*---------------------------------------------------------------------------*/
/*   Windows 32 and 64 bit porting by blueCAPE: http://www.bluecape.com.pt   *\
|  Based on Windows porting (2.0.x v4) by Symscape: http://www.symscape.com   |
\*---------------------------------------------------------------------------*/
FoamFile
{
    version     2.0;
    format      ascii;
    class       surfaceScalarField;
    location    "0.0005";
    object      phi;
}
// * * * * * * * * * * * * * * * * * * * * * * * * * * * * * * * * * * * * * //

dimensions      [1 0 -1 0 0 0 0];

internalField   nonuniform List<scalar> 
137
(
-2.84217e-014
-6.21725e-015
-1.42109e-014
-7.10543e-015
1.06581e-013
-2.22045e-014
9.61364e-012
-4.44089e-015
5.03995e-010
4.02345e-013
2.28564e-008
3.07203e-011
8.6615e-007
1.98183e-009
2.71637e-005
1.01092e-007
0.000735842
3.98384e-006
0.0141689
0.000147003
0.249376
0.00319912
2.6565
0.0806669
25.4018
1.00029
110.648
9.2326
20.3361
11.0061
3.44883
2.17994
0.269214
0.20472
0.017662
0.0142161
0.000851986
0.000738002
3.76792e-005
-8.52651e-014
-1.7053e-013
1.42109e-013
1.68257e-011
9.01494e-010
4.2352e-008
1.67071e-006
5.49659e-005
0.00157842
0.0320941
0.625557
7.20278
79.9164
413.945
74.0115
11.269
0.761705
0.0417181
0.00161658
3.42926e-005
1.86145e-005
9.9922e-006
5.30719e-006
2.79229e-006
1.45666e-006
7.54061e-007
3.87611e-007
1.97963e-007
1.00505e-007
5.07469e-008
2.54926e-008
1.27455e-008
6.34402e-009
3.14454e-009
1.55246e-009
7.6335e-010
3.73319e-010
1.8062e-010
8.43414e-011
3.34879e-011
1.42109e-014
-2.97817e-014
7.10543e-015
-2.498e-015
5.32907e-015
-1.38778e-016
7.10543e-015
2.22045e-016
-1.42109e-014
-7.77156e-016
3.55271e-015
-5.55112e-017
-1.77636e-014
-6.66134e-016
-1.06581e-014
-3.33067e-016
5.32907e-015
4.996e-016
1.95399e-014
9.15934e-016
0
3.33067e-016
1.06581e-014
-1.94289e-016
8.88178e-015
4.996e-016
-2.66454e-014
-4.16334e-016
-1.77636e-015
1.94289e-016
1.06581e-014
-2.498e-016
8.88178e-015
-6.66134e-016
1.59872e-014
-2.77556e-017
-2.13163e-014
-4.71845e-016
8.32667e-017
3.17968e-012
2.8777e-013
0
-3.90799e-014
3.55271e-014
-3.19744e-014
1.42109e-014
5.68434e-014
4.26326e-014
-1.06581e-014
-3.55271e-014
3.90799e-014
-6.03961e-014
-2.13163e-014
-1.42109e-014
1.06581e-014
4.9738e-014
-3.55271e-015
0
)
;

boundaryField
{
    inlet
    {
        type            calculated;
        value           nonuniform List<scalar> 2(2.34393e-014 4.81719e-014);
    }
    outlet
    {
        type            calculated;
        value           nonuniform List<scalar> 2(1.70397e-014 -8.62762e-015);
    }
    bottom
    {
        type            symmetryPlane;
        value           uniform 0;
    }
    top
    {
        type            symmetryPlane;
        value           uniform 0;
    }
    obstacle
    {
        type            calculated;
        value           nonuniform List<scalar> 
22
(
5.47579e-005
-2.05536e-015
4.20762e-008
2.35498e-008
1.18429e-008
5.91691e-009
2.93681e-009
1.44934e-009
7.11639e-010
3.47837e-010
1.69316e-010
8.21081e-011
3.96783e-011
1.91116e-011
9.17763e-012
4.39312e-012
2.09876e-012
9.99433e-013
4.73506e-013
2.2469e-013
1.03132e-013
4.3574e-014
)
;
    }
    defaultFaces
    {
        type            empty;
        value           nonuniform 0();
    }
}


// ************************************************************************* //
