/*--------------------------------*- C++ -*----------------------------------*\
| =========                 |                                                 |
| \\      /  F ield         | OpenFOAM: The Open Source CFD Toolbox           |
|  \\    /   O peration     | Version:  5.x                                   |
|   \\  /    A nd           | Web:      www.OpenFOAM.org                      |
|    \\/     M anipulation  |                                                 |
\*---------------------------------------------------------------------------*/
/*   Windows 32 and 64 bit porting by blueCAPE: http://www.bluecape.com.pt   *\
|  Based on Windows porting (2.0.x v4) by Symscape: http://www.symscape.com   |
\*---------------------------------------------------------------------------*/
FoamFile
{
    version     2.0;
    format      ascii;
    class       volVectorField;
    location    "0.0005";
    object      U;
}
// * * * * * * * * * * * * * * * * * * * * * * * * * * * * * * * * * * * * * //

dimensions      [0 1 -1 0 0 0 0];

internalField   nonuniform List<vector> 
100
(
(-3.75581e-014 -8.04817e-015 0)
(5.55707e-015 -2.77853e-015 1.65613e-017)
(-1.62081e-015 -1.44072e-014 -8.58737e-018)
(2.08243e-012 1.52606e-013 0)
(1.04153e-010 1.02415e-011 0)
(4.41593e-009 5.4243e-010 9.66079e-018)
(1.60334e-007 2.39583e-008 5.04041e-017)
(5.12203e-006 9.14288e-007 -6.64106e-024)
(0.000124458 2.61034e-005 -3.31227e-017)
(0.00295807 0.000725084 1.15929e-017)
(0.0445329 0.0125604 -9.7524e-017)
(0.75124 0.245147 9.01351e-017)
(7.01617 2.6069 0)
(55.7229 23.6775 5.3608e-017)
(220.712 97.9682 -2.69852e-016)
(69.2598 33.5765 1.04772e-016)
(6.79779 3.89145 -1.4116e-016)
(0.564256 0.375931 0)
(0.0322247 0.0247194 -1.51759e-016)
(0.00182045 0.00158985 1.2985e-016)
(-1.25314e-014 -6.26569e-015 -9.3366e-018)
(-4.60652e-014 -4.60652e-015 9.15232e-018)
(-7.22777e-014 -1.65636e-014 -2.2438e-017)
(1.814e-012 -8.42001e-014 5.28286e-017)
(8.62032e-011 -4.03008e-012 -3.45628e-017)
(3.57667e-009 -1.97987e-010 -3.81719e-017)
(1.27907e-007 -8.1529e-009 2.91559e-017)
(4.05304e-006 -2.911e-007 0)
(9.7386e-005 -7.80994e-006 6.03099e-017)
(0.00237683 -0.000207755 -6.71862e-017)
(0.0352878 -0.00338876 -6.21249e-017)
(0.645073 -0.0657156 1.25375e-016)
(6.16723 -0.673142 -5.99862e-017)
(56.2238 -6.39304 7.1815e-017)
(232.462 -23.8937 -2.53003e-016)
(61.1364 -6.42291 -9.10972e-017)
(5.20245 -0.556976 1.02274e-016)
(0.352253 -0.0394983 -8.9016e-017)
(0.0162236 -0.00175843 2.65938e-016)
(0.00072459 -8.05046e-005 -1.70184e-016)
(5.9652e-005 -8.54495e-006 0)
(3.48962e-005 -5.03372e-006 1.33254e-015)
(1.87511e-005 -2.72444e-006 -2.68782e-015)
(1.00038e-005 -1.46411e-006 1.35281e-015)
(5.28872e-006 -7.79731e-007 0)
(2.77324e-006 -4.11898e-007 0)
(1.44344e-006 -2.1599e-007 1.38439e-015)
(7.46216e-007 -1.12501e-007 -2.79322e-015)
(3.83376e-007 -5.82369e-008 1.40628e-015)
(1.95837e-007 -2.99761e-008 0)
(9.95082e-008 -1.53487e-008 0)
(5.03129e-008 -7.82085e-009 1.44044e-015)
(2.53228e-008 -3.96703e-009 -2.90723e-015)
(1.26899e-008 -2.00371e-009 1.46415e-015)
(6.3339e-009 -1.00801e-009 0)
(3.14891e-009 -5.05134e-010 0)
(1.55816e-009 -2.52039e-010 1.50122e-015)
(7.66105e-010 -1.24872e-010 -3.03094e-015)
(3.69258e-010 -6.07333e-011 1.52699e-015)
(1.61026e-010 -2.66538e-011 0)
(7.91177e-014 -4.48333e-013 2.51508e-016)
(1.03965e-013 -1.61186e-014 -4.919e-016)
(7.09653e-015 7.88504e-015 2.40632e-016)
(8.04618e-014 2.62417e-014 2.3554e-016)
(-5.4608e-014 -1.51164e-014 -2.30658e-016)
(-2.79529e-014 -1.33285e-014 2.25974e-016)
(-4.17299e-015 -1.30633e-014 -2.21477e-016)
(-1.27372e-013 -3.7002e-014 -2.17156e-016)
(-1.32612e-014 1.39592e-014 4.26e-016)
(1.04782e-013 4.1091e-014 -2.09e-016)
(4.77281e-014 2.68891e-014 2.05147e-016)
(-2.97027e-015 -1.0561e-014 -4.02869e-016)
(1.07136e-013 3.11196e-014 2.9678e-016)
(-6.62481e-014 -1.6562e-014 1.76803e-032)
(-1.02362e-013 -1.0017e-014 -9.553e-017)
(2.60048e-014 2.462e-015 9.39177e-017)
(7.47525e-014 -8.47396e-015 -1.38538e-016)
(8.0528e-014 2.3816e-015 1.65257e-032)
(-1.49388e-014 -5.85836e-015 4.46958e-017)
(-9.22518e-014 4.61259e-015 0)
(4.63917e-011 -8.13874e-012 -3.54012e-016)
(4.04118e-012 -7.01595e-013 7.13699e-016)
(4.33789e-013 -5.95281e-014 -7.19466e-016)
(-1.71126e-013 4.15932e-015 3.62664e-016)
(6.70957e-014 -2.27646e-014 0)
(4.83224e-014 -6.0403e-016 0)
(-1.16942e-013 -1.09633e-014 1.85875e-016)
(1.47409e-013 -1.22841e-014 -5.6232e-016)
(1.18928e-013 -1.05301e-014 3.78063e-016)
(6.99692e-014 1.1245e-014 0)
(-8.06556e-014 1.13422e-014 0)
(2.03396e-014 -6.99174e-015 0)
(3.07776e-014 6.41201e-015 -9.78395e-017)
(-2.17354e-013 -2.58755e-015 1.97415e-016)
(-2.08856e-014 7.17944e-015 -9.95905e-017)
(-1.05371e-014 -4.60999e-015 1.0049e-016)
(1.06331e-013 -1.8608e-014 -5.07027e-017)
(9.65781e-014 -3.35341e-015 -1.02338e-016)
(-9.74744e-014 -1.55688e-014 5.16438e-017)
(7.65237e-014 -1.36649e-015 0)
)
;

boundaryField
{
    inlet
    {
        type            zeroGradient;
    }
    outlet
    {
        type            zeroGradient;
    }
    bottom
    {
        type            symmetryPlane;
    }
    top
    {
        type            symmetryPlane;
    }
    obstacle
    {
        type            zeroGradient;
    }
    defaultFaces
    {
        type            empty;
    }
}


// ************************************************************************* //
