/*--------------------------------*- C++ -*----------------------------------*\
| =========                 |                                                 |
| \\      /  F ield         | OpenFOAM: The Open Source CFD Toolbox           |
|  \\    /   O peration     | Version:  5.x                                   |
|   \\  /    A nd           | Web:      www.OpenFOAM.org                      |
|    \\/     M anipulation  |                                                 |
\*---------------------------------------------------------------------------*/
/*   Windows 32 and 64 bit porting by blueCAPE: http://www.bluecape.com.pt   *\
|  Based on Windows porting (2.0.x v4) by Symscape: http://www.symscape.com   |
\*---------------------------------------------------------------------------*/
FoamFile
{
    version     2.0;
    format      ascii;
    class       volScalarField;
    location    "0.0055";
    object      mag(U);
}
// * * * * * * * * * * * * * * * * * * * * * * * * * * * * * * * * * * * * * //

dimensions      [0 1 -1 0 0 0 0];

internalField   nonuniform List<scalar> 
100
(
9.51111
43.1627
128.895
228.157
296.44
308.481
9.51106
43.1635
128.886
228.2
296.407
307.705
9.511
43.1644
128.877
228.256
296.352
307.886
9.51096
43.1651
128.869
228.314
296.303
311.23
9.51093
43.1657
128.863
228.363
296.258
318.408
9.51086
43.1668
128.85
228.456
295.952
334.426
9.51066
43.17
128.813
228.562
295.578
331.39
9.51025
43.1767
128.731
228.559
294.968
327.416
9.50987
43.1845
128.628
228.427
294.374
324.528
9.50973
43.1877
128.582
228.335
294.062
323.216
344.259
349.08
338.562
335.025
332.014
325.265
327.367
319.224
325.478
317.177
93.3086
95.6485
22.1612
187.683
128.577
25.6902
294.293
185.312
30.194
342.884
229.955
34.99
352.69
247.018
38.7436
352.745
250.233
40.2922
329.978
249.747
45.0405
315.873
242.453
50.0834
308.886
239.34
53.6968
307.046
239.215
55.177
)
;

boundaryField
{
    inlet
    {
        type            calculated;
        value           nonuniform List<scalar> 10(9.51086 9.51066 9.51025 9.50987 9.50973 9.51111 9.51106 9.511 9.51096 9.51093);
    }
    outlet
    {
        type            calculated;
        value           nonuniform List<scalar> 10(40.2922 45.0405 50.0834 53.6968 55.177 22.1612 25.6902 30.194 34.99 38.7436);
    }
    bottom
    {
        type            symmetryPlane;
    }
    top
    {
        type            symmetryPlane;
    }
    obstacle
    {
        type            calculated;
        value           nonuniform List<scalar> 
12
(
308.481
307.705
307.886
311.23
318.408
93.3086
187.683
294.293
342.884
352.69
344.259
349.08
)
;
    }
    defaultFaces
    {
        type            empty;
    }
}


// ************************************************************************* //
