/*--------------------------------*- C++ -*----------------------------------*\
| =========                 |                                                 |
| \\      /  F ield         | OpenFOAM: The Open Source CFD Toolbox           |
|  \\    /   O peration     | Version:  5.x                                   |
|   \\  /    A nd           | Web:      www.OpenFOAM.org                      |
|    \\/     M anipulation  |                                                 |
\*---------------------------------------------------------------------------*/
/*   Windows 32 and 64 bit porting by blueCAPE: http://www.bluecape.com.pt   *\
|  Based on Windows porting (2.0.x v4) by Symscape: http://www.symscape.com   |
\*---------------------------------------------------------------------------*/
FoamFile
{
    version     2.0;
    format      ascii;
    class       volScalarField;
    location    "0.0055";
    object      p;
}
// * * * * * * * * * * * * * * * * * * * * * * * * * * * * * * * * * * * * * //

dimensions      [1 -1 -2 0 0 0 0];

internalField   nonuniform List<scalar> 
100
(
96515.6
81210.3
58766.3
39363
36845.5
33191.9
96515.5
81210.4
58766.3
39361.7
36843.9
33201.3
96515.5
81210.5
58766.2
39360.7
36819.9
33224.9
96515.5
81210.6
58766.1
39360.3
36769.8
33265.8
96515.5
81210.7
58766
39360.1
36730.7
33292.4
96515.5
81210.9
58765.8
39359.6
36642.1
33343.9
96515.4
81211.5
58764.9
39361.4
36561.9
33395.2
96515.2
81212.9
58761.8
39384.8
36551.1
33337.8
96514.9
81214.7
58747.5
39480.2
36694.3
33485.2
96514.8
81215.4
58738.7
39548.6
36818.7
33665.6
30080.3
28198.6
30408.6
28733.6
30687.9
29338.2
31171.8
30126.9
31517.9
30586.3
30885.4
23481.1
10936.7
25949.9
21807.5
11047.8
23584.5
21097.4
11143.4
22970.1
20837.8
11194.9
23323.3
20764.9
11225.3
25628.8
20739.1
11290.6
27586.4
22017
11445.9
28552.4
24191.3
11656.7
29532.1
25945
11826.9
30046.4
26710.6
11896.5
)
;

boundaryField
{
    inlet
    {
        type            zeroGradient;
    }
    outlet
    {
        type            zeroGradient;
    }
    bottom
    {
        type            symmetryPlane;
    }
    top
    {
        type            symmetryPlane;
    }
    obstacle
    {
        type            zeroGradient;
    }
    defaultFaces
    {
        type            empty;
    }
}


// ************************************************************************* //
