/*--------------------------------*- C++ -*----------------------------------*\
| =========                 |                                                 |
| \\      /  F ield         | OpenFOAM: The Open Source CFD Toolbox           |
|  \\    /   O peration     | Version:  5.x                                   |
|   \\  /    A nd           | Web:      www.OpenFOAM.org                      |
|    \\/     M anipulation  |                                                 |
\*---------------------------------------------------------------------------*/
/*   Windows 32 and 64 bit porting by blueCAPE: http://www.bluecape.com.pt   *\
|  Based on Windows porting (2.0.x v4) by Symscape: http://www.symscape.com   |
\*---------------------------------------------------------------------------*/
FoamFile
{
    version     2.0;
    format      ascii;
    class       surfaceScalarField;
    location    "0.0055";
    object      phi;
}
// * * * * * * * * * * * * * * * * * * * * * * * * * * * * * * * * * * * * * //

dimensions      [1 0 -1 0 0 0 0];

internalField   nonuniform List<scalar> 
174
(
7.36426
0.00118202
16.8612
-0.00772343
23.9555
0.061323
22.185
-0.253576
18.4051
0.43127
-0.408202
4.92485
0.00189587
11.2753
-0.0123493
16.0218
0.0986584
14.8297
-0.415452
12.2154
0.844962
-0.730374
3.2935
0.00232054
7.53985
-0.0150702
10.716
0.120739
9.90919
-0.517426
8.10898
1.28256
-1.053
2.20252
0.00257676
5.042
-0.0166847
7.16727
0.133853
6.62123
-0.58064
5.49065
1.54434
-1.27115
1.47293
0.00273488
3.37168
-0.0176585
4.79349
0.141854
4.42806
-0.621978
3.78858
1.59455
-1.38661
6.25181
0.00327386
14.3099
-0.0210016
20.3527
0.165851
18.7775
-0.769035
17.0718
0.798802
-1.28574
14.6989
11.1181
0.00366632
25.4427
-0.0227678
36.2027
0.184109
33.3015
-0.910382
30.0408
-0.0248247
-1.16746
25.8647
19.7733
0.00253268
45.2286
-0.0150694
64.3704
0.146544
59.0491
-0.762974
52.677
-0.421781
-1.03892
45.3814
35.1671
0.000881575
80.4127
-0.00529019
114.432
0.0571792
104.99
-0.322204
93.0682
-0.260431
-0.475439
80.3925
62.5403
142.99
203.463
186.843
165.296
143.179
14.043
-0.663026
-1.14721
13.731
24.5032
-0.616663
-1.07904
23.7696
43.1088
-0.441268
-0.685347
41.7644
76.7277
-0.182226
-0.257702
74.6825
137.041
133.719
6.15585
-3.87521
2.47983
-10.8101
-3.31131
6.01742
-6.21322
1.98927
-14.0424
-5.18521
5.27287
-7.10109
1.87067
-14.3179
-5.70275
4.03806
-7.64879
1.56754
-14.3348
-5.59117
2.94221
-7.95166
1.15369
-14.1803
-5.46734
10.9255
-5.31811
4.9608
-14.1747
-4.89966
20.6049
-2.62126
9.32301
-11.3254
-3.46806
40.088
-1.32406
17.6156
-5.97093
-1.67626
72.9573
-0.445894
32.8165
-1.78657
-0.461237
131.178
59.6396
)
;

boundaryField
{
    inlet
    {
        type            calculated;
        value           nonuniform List<scalar> 10(-1.4964 -2.66096 -4.73171 -8.41395 -14.9621 -1.76284 -1.17888 -0.788358 -0.527205 -0.352562);
    }
    outlet
    {
        type            calculated;
        value           nonuniform List<scalar> 10(0.828906 1.70477 3.46778 6.6983 12.2868 0.540179 0.39527 0.307436 0.243622 0.184589);
    }
    bottom
    {
        type            symmetryPlane;
        value           uniform 0;
    }
    top
    {
        type            symmetryPlane;
        value           uniform 0;
    }
    obstacle
    {
        type            calculated;
        value           nonuniform List<scalar> 
12
(
16.8176
11.224
7.51989
5.08629
3.4712
-4.83763
-5.54613
-5.07264
-3.89232
-2.77895
0.601759
1.02475
)
;
    }
    defaultFaces
    {
        type            empty;
        value           nonuniform 0();
    }
}


// ************************************************************************* //
