/*--------------------------------*- C++ -*----------------------------------*\
| =========                 |                                                 |
| \\      /  F ield         | OpenFOAM: The Open Source CFD Toolbox           |
|  \\    /   O peration     | Version:  5.x                                   |
|   \\  /    A nd           | Web:      www.OpenFOAM.org                      |
|    \\/     M anipulation  |                                                 |
\*---------------------------------------------------------------------------*/
/*   Windows 32 and 64 bit porting by blueCAPE: http://www.bluecape.com.pt   *\
|  Based on Windows porting (2.0.x v4) by Symscape: http://www.symscape.com   |
\*---------------------------------------------------------------------------*/
FoamFile
{
    version     2.0;
    format      ascii;
    class       volScalarField;
    location    "0.0055";
    object      T;
}
// * * * * * * * * * * * * * * * * * * * * * * * * * * * * * * * * * * * * * //

dimensions      [0 0 0 1 0 0 0];

internalField   nonuniform List<scalar> 
100
(
344.703
329.517
284.88
302.762
362.488
404.481
344.703
329.517
284.88
302.766
362.731
404.383
344.703
329.517
284.88
302.773
362.961
404.145
344.703
329.517
284.88
302.781
362.826
404.409
344.703
329.517
284.88
302.798
361.955
405.737
344.703
329.517
284.88
302.806
361.296
400.736
344.702
329.517
284.88
302.84
361.934
401.02
344.702
329.517
284.881
302.935
362.921
400.712
344.702
329.518
284.87
303.148
363.96
401.046
344.702
329.518
284.861
303.293
364.52
401.666
406.817
404.035
406.761
405.486
406.373
406.043
407.598
407.902
408.64
409.158
380.166
359.934
286.79
372.461
358.475
287.897
379.584
369.79
289.611
376.092
371.637
291.453
375.984
363.384
292.116
385.12
359.933
292.492
389.692
365.573
294.245
392.529
373.868
296.294
395.139
380.507
297.917
396.603
383.555
298.601
)
;

boundaryField
{
    inlet
    {
        type            zeroGradient;
    }
    outlet
    {
        type            zeroGradient;
    }
    bottom
    {
        type            symmetryPlane;
    }
    top
    {
        type            symmetryPlane;
    }
    obstacle
    {
        type            zeroGradient;
    }
    defaultFaces
    {
        type            empty;
    }
}


// ************************************************************************* //
