/*--------------------------------*- C++ -*----------------------------------*\
| =========                 |                                                 |
| \\      /  F ield         | OpenFOAM: The Open Source CFD Toolbox           |
|  \\    /   O peration     | Version:  5.x                                   |
|   \\  /    A nd           | Web:      www.OpenFOAM.org                      |
|    \\/     M anipulation  |                                                 |
\*---------------------------------------------------------------------------*/
/*   Windows 32 and 64 bit porting by blueCAPE: http://www.bluecape.com.pt   *\
|  Based on Windows porting (2.0.x v4) by Symscape: http://www.symscape.com   |
\*---------------------------------------------------------------------------*/
FoamFile
{
    version     2.0;
    format      ascii;
    class       volVectorField;
    location    "0.0055";
    object      U;
}
// * * * * * * * * * * * * * * * * * * * * * * * * * * * * * * * * * * * * * //

dimensions      [0 1 -1 0 0 0 0];

internalField   nonuniform List<vector> 
100
(
(9.51111 0.000127809 0)
(43.1627 -0.0013137 0)
(128.895 0.0172118 0)
(228.157 -0.156953 0)
(296.44 0.430735 0)
(308.48 -0.760995 0)
(9.51106 0.000330187 0)
(43.1635 -0.00338158 0)
(128.886 0.0444847 0)
(228.199 -0.40803 0)
(296.404 1.29689 0)
(307.698 -2.01225 0)
(9.511 0.000449533 0)
(43.1644 -0.00458505 0)
(128.877 0.0605393 0)
(228.255 -0.563898 0)
(296.343 2.24107 0)
(307.87 -3.19754 0)
(9.51096 0.000521389 0)
(43.1651 -0.00530098 0)
(128.869 0.0700609 0)
(228.313 -0.660899 0)
(296.288 3.01746 0)
(311.201 -4.24534 0)
(9.51093 0.000565417 0)
(43.1657 -0.00573054 0)
(128.863 0.0759286 0)
(228.362 -0.726211 0)
(296.238 3.45109 0)
(318.371 -4.9048 0)
(9.51086 0.000644986 0)
(43.1668 -0.006516 0)
(128.85 0.0857492 0)
(228.454 -0.849151 0)
(295.941 2.58138 0)
(334.392 -4.80299 0)
(9.51066 0.000789469 0)
(43.17 -0.00778143 0)
(128.813 0.102987 0)
(228.559 -1.08566 0)
(295.577 0.433888 0)
(331.36 -4.4808 0)
(9.51025 0.00067856 0)
(43.1767 -0.00646299 0)
(128.731 0.0943647 0)
(228.557 -1.05471 0)
(294.967 -0.879398 0)
(327.389 -4.25821 0)
(9.50987 0.000291648 0)
(43.1845 -0.00270934 0)
(128.628 0.0467396 0)
(228.426 -0.556871 0)
(294.373 -0.769232 0)
(324.52 -2.20661 0)
(9.50973 4.87538e-005 0)
(43.1877 -0.000458443 0)
(128.582 0.00875158 0)
(228.335 -0.114048 0)
(294.062 -0.196103 0)
(323.215 -0.503415 0)
(344.13 -9.42075 0)
(348.666 -16.9918 0)
(338.405 -10.2956 0)
(334.459 -19.4594 0)
(331.921 -7.84442 0)
(325.02 -12.6148 0)
(327.348 -3.5433 0)
(319.183 -5.15406 0)
(325.477 -0.77754 0)
(317.175 -1.07195 0)
(89.9934 -24.6512 0)
(90.0612 -32.2123 0)
(21.766 -4.16648 0)
(179.366 -55.2515 0)
(114.921 -57.6649 0)
(23.5613 -10.2395 0)
(274.861 -105.168 0)
(170.599 -72.3639 0)
(27.2379 -13.0296 0)
(320.781 -121.116 0)
(217.199 -75.5244 0)
(32.2543 -13.5632 0)
(337.203 -103.365 0)
(236.554 -71.1356 0)
(36.4782 -13.0542 0)
(345.08 -73.1365 0)
(240.39 -69.489 0)
(38.399 -12.2056 0)
(327.504 -40.3305 0)
(243.266 -56.5266 0)
(44.0574 -9.35908 0)
(315.296 -19.0914 0)
(240.718 -28.9548 0)
(49.8458 -4.87189 0)
(308.809 -6.90846 0)
(239.157 -9.36297 0)
(53.6739 -1.57009 0)
(307.044 -1.33503 0)
(239.209 -1.62034 0)
(55.1764 -0.259588 0)
)
;

boundaryField
{
    inlet
    {
        type            zeroGradient;
    }
    outlet
    {
        type            zeroGradient;
    }
    bottom
    {
        type            symmetryPlane;
    }
    top
    {
        type            symmetryPlane;
    }
    obstacle
    {
        type            zeroGradient;
    }
    defaultFaces
    {
        type            empty;
    }
}


// ************************************************************************* //
