/*--------------------------------*- C++ -*----------------------------------*\
| =========                 |                                                 |
| \\      /  F ield         | OpenFOAM: The Open Source CFD Toolbox           |
|  \\    /   O peration     | Version:  5.x                                   |
|   \\  /    A nd           | Web:      www.OpenFOAM.org                      |
|    \\/     M anipulation  |                                                 |
\*---------------------------------------------------------------------------*/
/*   Windows 32 and 64 bit porting by blueCAPE: http://www.bluecape.com.pt   *\
|  Based on Windows porting (2.0.x v4) by Symscape: http://www.symscape.com   |
\*---------------------------------------------------------------------------*/
FoamFile
{
    version     2.0;
    format      ascii;
    class       volScalarField;
    location    "0.0045";
    object      mag(U);
}
// * * * * * * * * * * * * * * * * * * * * * * * * * * * * * * * * * * * * * //

dimensions      [0 1 -1 0 0 0 0];

internalField   nonuniform List<scalar> 
100
(
0.000252327
0.00173951
0.00966133
0.0497927
0.231664
0.970058
3.53825
10.9571
27.4602
56.1417
96.2605
142.885
190.771
232.425
267.748
296.784
312.566
303.358
275.484
210.253
0.000181712
0.00122942
0.00669336
0.0341185
0.156857
0.657449
2.41362
7.70065
20.1615
43.0957
76.8057
117.644
162.25
201.032
236.462
268.724
297.129
316.267
320.149
284.948
285.733
288.193
287.485
284.336
279.881
274.807
269.284
263.438
257.31
250.842
243.938
236.512
228.497
219.836
210.475
200.374
189.51
177.867
165.52
151.548
6.64805
2.582
0.979999
0.366758
0.139374
0.0550414
0.0220666
0.00889574
0.00353448
0.00136468
0.00051143
0.000185878
6.55118e-005
2.23996e-005
7.43564e-006
2.3986e-006
7.52659e-007
2.29906e-007
6.85541e-008
1.64121e-008
108.076
56.6307
22.3225
8.23627
2.98436
1.098
0.411924
0.155532
0.0583364
0.0215295
0.00777345
0.00273689
0.000938124
0.000312849
0.0001015
3.20472e-005
9.8524e-006
2.95004e-006
8.61613e-007
1.93311e-007
)
;

boundaryField
{
    inlet
    {
        type            calculated;
        value           nonuniform List<scalar> 2(0.000181712 0.000252327);
    }
    outlet
    {
        type            calculated;
        value           nonuniform List<scalar> 2(1.93311e-007 1.64121e-008);
    }
    bottom
    {
        type            symmetryPlane;
    }
    top
    {
        type            symmetryPlane;
    }
    obstacle
    {
        type            calculated;
        value           nonuniform List<scalar> 
22
(
210.253
6.64805
285.733
288.193
287.485
284.336
279.881
274.807
269.284
263.438
257.31
250.842
243.938
236.512
228.497
219.836
210.475
200.374
189.51
177.867
165.52
151.548
)
;
    }
    defaultFaces
    {
        type            empty;
    }
}


// ************************************************************************* //
