/*--------------------------------*- C++ -*----------------------------------*\
| =========                 |                                                 |
| \\      /  F ield         | OpenFOAM: The Open Source CFD Toolbox           |
|  \\    /   O peration     | Version:  5.x                                   |
|   \\  /    A nd           | Web:      www.OpenFOAM.org                      |
|    \\/     M anipulation  |                                                 |
\*---------------------------------------------------------------------------*/
/*   Windows 32 and 64 bit porting by blueCAPE: http://www.bluecape.com.pt   *\
|  Based on Windows porting (2.0.x v4) by Symscape: http://www.symscape.com   |
\*---------------------------------------------------------------------------*/
FoamFile
{
    version     2.0;
    format      ascii;
    class       volScalarField;
    location    "0.0045";
    object      p;
}
// * * * * * * * * * * * * * * * * * * * * * * * * * * * * * * * * * * * * * //

dimensions      [1 -1 -2 0 0 0 0];

internalField   nonuniform List<scalar> 
100
(
99999.9
99999.4
99996.8
99983.4
99921.4
99667
98755.8
96051.8
89914.5
79897.3
67319.4
54343.2
42901.7
34045.6
26504.9
21678.5
18370.8
17003.4
16562.8
15788.9
99999.9
99999.6
99997.8
99988.7
99946.8
99776.4
99160.3
97290.4
92746.4
84779.7
74337.2
63059.9
53346.7
45917.2
39251
34764.4
32296.2
32084.4
32041.9
31651.5
31017.1
30374.1
29651.7
29066.1
28530.6
28009.5
27486.4
26949.8
26391.2
25806.2
25191.8
24544.6
23860.5
23136.1
22368.9
21557.4
20701.9
19804.8
18873.3
17919.2
10082.4
10037.4
10018.1
10007.8
10003.6
10001.6
10000.7
10000.3
10000.1
10000
10000
10000
10000
10000
10000
10000
10000
10000
10000
10000
15359.6
12277.2
10877.2
10314.2
10112.6
10041.5
10015.6
10005.9
10002.2
10000.8
10000.3
10000.1
10000
10000
10000
10000
10000
10000
10000
10000
)
;

boundaryField
{
    inlet
    {
        type            zeroGradient;
    }
    outlet
    {
        type            zeroGradient;
    }
    bottom
    {
        type            symmetryPlane;
    }
    top
    {
        type            symmetryPlane;
    }
    obstacle
    {
        type            zeroGradient;
    }
    defaultFaces
    {
        type            empty;
    }
}


// ************************************************************************* //
