/*--------------------------------*- C++ -*----------------------------------*\
| =========                 |                                                 |
| \\      /  F ield         | OpenFOAM: The Open Source CFD Toolbox           |
|  \\    /   O peration     | Version:  5.x                                   |
|   \\  /    A nd           | Web:      www.OpenFOAM.org                      |
|    \\/     M anipulation  |                                                 |
\*---------------------------------------------------------------------------*/
/*   Windows 32 and 64 bit porting by blueCAPE: http://www.bluecape.com.pt   *\
|  Based on Windows porting (2.0.x v4) by Symscape: http://www.symscape.com   |
\*---------------------------------------------------------------------------*/
FoamFile
{
    version     2.0;
    format      ascii;
    class       surfaceScalarField;
    location    "0.0045";
    object      phi;
}
// * * * * * * * * * * * * * * * * * * * * * * * * * * * * * * * * * * * * * //

dimensions      [1 0 -1 0 0 0 0];

internalField   nonuniform List<scalar> 
137
(
0.00110455
5.42998e-006
0.00618887
4.17693e-005
0.0318378
0.000275462
0.149185
0.00166621
0.63085
0.00914993
2.35783
0.0451636
7.61314
0.192507
20.4773
0.684692
42.7319
1.90903
69.2577
4.20588
91.6424
7.41684
102.387
10.9488
103.328
13.4426
99.6929
16.1936
85.5068
16.7097
69.2371
15.6549
51.0158
12.5665
39.2456
9.21633
31.4714
8.01308
6.12774
0.00136869
0.00794645
0.0425878
0.208508
0.928998
3.68852
12.8359
37.9326
90.1538
166.202
250.062
319.605
372.405
416.791
420.051
396.692
362.779
350.395
335.665
264.615
257.509
250.067
243.25
237.389
231.736
225.734
219.006
211.372
202.827
193.48
183.481
172.958
162.01
150.704
139.108
127.274
115.315
103.287
91.3812
79.637
0.00813952
-0.396873
0.0292546
-0.17126
0.0196894
-0.0624852
0.0113507
-0.0218658
0.00590913
-0.00788629
0.00290874
-0.00292065
0.00135229
-0.00109283
0.000594434
-0.000406912
0.000249139
-0.000149361
0.000100032
-5.37051e-005
3.85923e-005
-1.88434e-005
1.43409e-005
-6.43829e-006
5.14393e-006
-2.14003e-006
1.78435e-006
-6.91766e-007
5.99642e-007
-2.17483e-007
1.95535e-007
-6.65222e-008
6.19559e-008
-1.98069e-008
1.90818e-008
-5.74479e-009
5.61714e-009
-1.63087e-009
-4.31636e-010
36.7665
14.3647
5.01786
1.72106
0.611563
0.225037
0.084204
0.0314821
0.0116198
0.00420282
0.00148352
0.000509929
0.00017052
5.54616e-005
1.7549e-005
5.40462e-006
1.62099e-006
4.73359e-007
1.3227e-007
)
;

boundaryField
{
    inlet
    {
        type            calculated;
        value           nonuniform List<scalar> 2(-0.000337549 -0.000280935);
    }
    outlet
    {
        type            calculated;
        value           nonuniform List<scalar> 2(3.32106e-008 1.47218e-009);
    }
    bottom
    {
        type            symmetryPlane;
        value           uniform 0;
    }
    top
    {
        type            symmetryPlane;
        value           uniform 0;
    }
    obstacle
    {
        type            calculated;
        value           nonuniform List<scalar> 
22
(
22.691
0.0992434
2.60408
2.54175
2.46573
2.39766
2.33327
2.26762
2.19678
2.11905
2.03447
1.9441
1.84912
1.75047
1.64858
1.54359
1.4352
1.32353
1.20822
1.09078
0.970971
0.847513
)
;
    }
    defaultFaces
    {
        type            empty;
        value           nonuniform 0();
    }
}


// ************************************************************************* //
