/*--------------------------------*- C++ -*----------------------------------*\
| =========                 |                                                 |
| \\      /  F ield         | OpenFOAM: The Open Source CFD Toolbox           |
|  \\    /   O peration     | Version:  5.x                                   |
|   \\  /    A nd           | Web:      www.OpenFOAM.org                      |
|    \\/     M anipulation  |                                                 |
\*---------------------------------------------------------------------------*/
/*   Windows 32 and 64 bit porting by blueCAPE: http://www.bluecape.com.pt   *\
|  Based on Windows porting (2.0.x v4) by Symscape: http://www.symscape.com   |
\*---------------------------------------------------------------------------*/
FoamFile
{
    version     2.0;
    format      ascii;
    class       volScalarField;
    location    "0.0045";
    object      T;
}
// * * * * * * * * * * * * * * * * * * * * * * * * * * * * * * * * * * * * * //

dimensions      [0 0 0 1 0 0 0];

internalField   nonuniform List<scalar> 
100
(
348.432
348.431
348.429
348.416
348.354
348.099
347.184
344.439
338.119
327.163
312.277
292.104
281.756
255.574
237.448
237.394
249.541
292.365
320.249
325.681
348.432
348.432
348.43
348.421
348.379
348.209
347.591
345.702
341.061
332.558
320.692
304.339
296.727
270.622
259.749
265.753
298.926
349.55
377.098
404.164
421.308
418.24
415.464
410.627
403.518
395.873
388.645
382.352
377.119
372.794
369.09
365.695
362.366
358.909
355.234
351.202
346.899
342.02
337.116
331.37
279.412
279.032
278.886
278.807
278.774
278.759
278.752
278.748
278.747
278.746
278.746
278.746
278.746
278.746
278.746
278.746
278.746
278.746
278.746
278.746
316.939
295.805
285.426
281.169
279.625
279.073
278.87
278.793
278.764
278.752
278.748
278.747
278.746
278.746
278.746
278.746
278.746
278.746
278.746
278.746
)
;

boundaryField
{
    inlet
    {
        type            zeroGradient;
    }
    outlet
    {
        type            zeroGradient;
    }
    bottom
    {
        type            symmetryPlane;
    }
    top
    {
        type            symmetryPlane;
    }
    obstacle
    {
        type            zeroGradient;
    }
    defaultFaces
    {
        type            empty;
    }
}


// ************************************************************************* //
