/*--------------------------------*- C++ -*----------------------------------*\
| =========                 |                                                 |
| \\      /  F ield         | OpenFOAM: The Open Source CFD Toolbox           |
|  \\    /   O peration     | Version:  5.x                                   |
|   \\  /    A nd           | Web:      www.OpenFOAM.org                      |
|    \\/     M anipulation  |                                                 |
\*---------------------------------------------------------------------------*/
/*   Windows 32 and 64 bit porting by blueCAPE: http://www.bluecape.com.pt   *\
|  Based on Windows porting (2.0.x v4) by Symscape: http://www.symscape.com   |
\*---------------------------------------------------------------------------*/
FoamFile
{
    version     2.0;
    format      ascii;
    class       volVectorField;
    location    "0.0045";
    object      U;
}
// * * * * * * * * * * * * * * * * * * * * * * * * * * * * * * * * * * * * * //

dimensions      [0 1 -1 0 0 0 0];

internalField   nonuniform List<vector> 
100
(
(0.000252327 2.97811e-007 0)
(0.00173931 2.63174e-005 1.65611e-017)
(0.00965631 0.000311506 -8.58743e-018)
(0.0497293 0.00251301 0)
(0.231101 0.016148 0)
(0.966115 0.0873769 9.64961e-018)
(3.51627 0.39376 4.95907e-017)
(10.8599 1.45586 -1.91379e-018)
(27.1301 4.24539 -3.30976e-017)
(55.2404 10.0195 1.0804e-017)
(94.2464 19.588 -7.61577e-017)
(139.11 32.6275 8.11988e-017)
(184.744 47.5714 0)
(223.733 62.9669 5.92e-017)
(256.775 75.8658 -9.83993e-017)
(284.417 84.7796 7.55943e-017)
(300.925 84.5052 -1.14001e-016)
(293.556 76.491 0)
(264.584 76.7251 -1.56497e-016)
(199.432 66.5837 1.40384e-016)
(0.000181619 -5.84182e-006 -9.33658e-018)
(0.00122827 -5.30981e-005 9.15232e-018)
(0.00668279 -0.000375973 -2.24369e-017)
(0.034037 -0.00235705 5.28192e-017)
(0.156324 -0.0129263 -3.45616e-017)
(0.654423 -0.0630067 -3.80261e-017)
(2.39903 -0.264965 2.9165e-017)
(7.64122 -0.954864 0)
(19.9684 -2.78381 5.59321e-017)
(42.6081 -6.46466 -6.56865e-017)
(75.814 -12.3022 -5.14672e-017)
(115.967 -19.7976 1.0634e-016)
(159.738 -28.439 -5.31664e-017)
(197.909 -35.2983 8.26101e-017)
(232.634 -42.3749 -8.64788e-017)
(263.88 -50.7954 -7.87443e-017)
(290.525 -62.2968 9.51193e-017)
(307.977 -71.9372 -1.02564e-016)
(311.277 -74.8461 3.27452e-016)
(276.607 -68.4396 -2.32509e-016)
(277.944 -66.2613 0)
(280.95 -64.2069 9.01168e-016)
(280.806 -61.6072 -1.82795e-015)
(278.235 -58.5825 9.20978e-016)
(274.349 -55.3739 0)
(269.809 -52.1718 0)
(264.772 -49.0841 9.00905e-016)
(259.355 -46.1973 -1.829e-015)
(253.595 -43.5655 9.30886e-016)
(247.435 -41.2062 0)
(240.783 -39.1084 0)
(233.561 -37.2418 9.46766e-016)
(225.713 -35.5614 -1.95625e-015)
(217.189 -34.0117 1.01252e-015)
(207.946 -32.5324 0)
(197.951 -31.0649 0)
(187.191 -29.5584 1.04402e-015)
(175.654 -27.9694 -2.19147e-015)
(163.42 -26.2773 1.15423e-015)
(149.587 -24.3059 0)
(1.74119 -6.41598 2.51377e-016)
(1.06083 -2.35401 -4.92679e-016)
(0.414939 -0.887819 2.40963e-016)
(0.190444 -0.313436 2.35526e-016)
(0.0813475 -0.113172 -2.30722e-016)
(0.0368661 -0.040871 2.25971e-016)
(0.0162791 -0.0148972 -2.2149e-016)
(0.00707026 -0.00539867 -2.17155e-016)
(0.00295268 -0.00194273 4.26002e-016)
(0.0011759 -0.000692533 -2.09001e-016)
(0.000450018 -0.000242989 2.05147e-016)
(0.000165995 -8.36449e-005 -4.02869e-016)
(5.91342e-005 -2.81948e-005 2.9678e-016)
(2.03795e-005 -9.29606e-006 -9.94763e-024)
(6.80525e-006 -2.99621e-006 -9.553e-017)
(2.2051e-006 -9.43826e-007 9.39177e-017)
(6.943e-007 -2.9059e-007 -1.38538e-016)
(2.12607e-007 -8.74915e-008 5.41494e-026)
(6.34673e-008 -2.59145e-008 4.46958e-017)
(1.45931e-008 -7.50992e-009 0)
(105.908 -21.5418 -3.39647e-016)
(55.453 -11.4894 7.61736e-016)
(21.893 -4.35794 -7.43188e-016)
(8.09268 -1.53126 3.74364e-016)
(2.93636 -0.533103 0)
(1.08169 -0.188587 0)
(0.406332 -0.0676429 1.85826e-016)
(0.153629 -0.0242582 -5.62389e-016)
(0.0577008 -0.00858787 3.78145e-016)
(0.0213232 -0.00297351 0)
(0.00770872 -0.00100107 0)
(0.00271735 -0.00032646 0)
(0.000932467 -0.000102863 -9.78394e-017)
(0.000311284 -3.12521e-005 1.97415e-016)
(0.000101088 -9.13771e-006 -9.95906e-017)
(3.19443e-005 -2.5651e-006 1.0049e-016)
(9.82828e-006 -6.89022e-007 -5.07027e-017)
(2.94478e-006 -1.76189e-007 -1.02338e-016)
(8.60555e-007 -4.26746e-008 5.16438e-017)
(1.9307e-007 -9.6422e-009 0)
)
;

boundaryField
{
    inlet
    {
        type            zeroGradient;
    }
    outlet
    {
        type            zeroGradient;
    }
    bottom
    {
        type            symmetryPlane;
    }
    top
    {
        type            symmetryPlane;
    }
    obstacle
    {
        type            zeroGradient;
    }
    defaultFaces
    {
        type            empty;
    }
}


// ************************************************************************* //
