/*--------------------------------*- C++ -*----------------------------------*\
| =========                 |                                                 |
| \\      /  F ield         | OpenFOAM: The Open Source CFD Toolbox           |
|  \\    /   O peration     | Version:  5.x                                   |
|   \\  /    A nd           | Web:      www.OpenFOAM.org                      |
|    \\/     M anipulation  |                                                 |
\*---------------------------------------------------------------------------*/
/*   Windows 32 and 64 bit porting by blueCAPE: http://www.bluecape.com.pt   *\
|  Based on Windows porting (2.0.x v4) by Symscape: http://www.symscape.com   |
\*---------------------------------------------------------------------------*/
FoamFile
{
    version     2.0;
    format      ascii;
    class       volScalarField;
    location    "0.006";
    object      mag(U);
}
// * * * * * * * * * * * * * * * * * * * * * * * * * * * * * * * * * * * * * //

dimensions      [0 1 -1 0 0 0 0];

internalField   nonuniform List<scalar> 
1000
(
4.17908e-012
3.83079e-012
3.77463e-012
3.14158e-012
3.46088e-012
3.0144e-012
3.29046e-012
2.93432e-012
3.35991e-012
2.62564e-012
3.08669e-012
2.80199e-012
2.57828e-012
2.45971e-012
2.40392e-012
2.2529e-012
2.37439e-012
2.48686e-012
2.14969e-012
2.12444e-012
2.06738e-012
2.43624e-012
2.18345e-012
2.58816e-012
2.07948e-012
2.35204e-012
2.07457e-012
2.23974e-012
2.00029e-012
1.77768e-012
1.68445e-012
1.67157e-012
1.59332e-012
1.71119e-012
1.70795e-012
1.59775e-012
1.35636e-012
1.50707e-012
1.36052e-012
1.2811e-012
1.37373e-012
1.25811e-012
1.25394e-012
1.28033e-012
1.09742e-012
1.28045e-012
1.19091e-012
1.12022e-012
1.10863e-012
1.01468e-012
8.85357e-013
8.60845e-013
1.02573e-012
6.48067e-013
9.38451e-013
7.18864e-013
1.05366e-012
7.24541e-013
1.39844e-012
1.28687e-012
1.97961e-012
3.55352e-012
8.59604e-012
1.92453e-011
4.75874e-011
1.17174e-010
2.87576e-010
7.0145e-010
1.69423e-009
4.04396e-009
9.55015e-009
2.22947e-008
5.14479e-008
1.17322e-007
2.64331e-007
5.88252e-007
1.29276e-006
2.80477e-006
6.00596e-006
1.26896e-005
2.6446e-005
5.43475e-005
0.000110093
0.000219758
0.000432083
0.000836471
0.00159371
0.00298702
0.00550459
0.00996873
0.0177311
0.0309563
0.0530153
0.089001
0.14636
0.235593
0.370937
0.570858
0.858155
1.25944
1.80385
2.52091
3.43782
4.57662
5.95166
7.56824
9.42243
11.5022
13.7893
16.2615
18.8949
21.6658
24.5525
27.5362
30.6006
33.7322
36.9198
40.154
43.4275
46.734
50.0685
53.427
56.806
60.2029
63.6155
67.0418
70.4805
73.9303
77.39
80.859
84.3365
87.8218
91.3145
94.8139
98.3198
101.832
105.349
108.872
112.399
115.931
119.468
123.008
126.551
130.098
133.647
137.199
140.753
144.309
147.866
151.424
154.983
158.542
162.101
165.66
169.217
172.775
176.329
179.884
183.433
186.984
190.529
194.072
197.612
201.146
204.678
208.204
211.725
215.242
218.752
222.255
225.754
229.244
232.727
236.202
239.67
243.127
246.576
250.016
253.444
256.862
260.267
263.661
267.042
270.408
273.76
277.095
280.415
283.716
286.998
290.259
293.498
296.714
299.904
303.065
306.196
309.294
312.358
315.381
318.361
321.293
324.175
326.999
329.759
332.449
335.06
337.585
340.014
342.337
344.54
346.611
348.533
350.292
351.871
353.248
354.407
355.326
355.987
356.381
356.474
356.28
355.843
355.177
354.31
353.281
352.129
350.874
349.515
348.045
346.453
344.721
342.827
340.746
338.459
335.949
333.214
330.27
327.154
323.925
320.655
317.432
314.336
311.421
308.729
306.29
304.111
302.179
300.474
298.967
297.628
296.424
295.321
294.29
293.301
292.336
291.382
290.431
289.464
288.463
287.433
286.383
285.323
284.258
283.197
282.177
281.264
280.531
279.98
279.41
278.703
277.978
277.378
276.984
276.879
276.841
276.693
276.766
277.046
277.165
276.897
276.125
274.65
271.998
267.335
259.853
249.661
238.5
228.892
222.23
217.967
214.388
210.461
205.973
200.894
195.368
189.58
183.739
177.879
171.898
165.721
159.27
5.81373e-012
6.36268e-012
4.95384e-012
5.82274e-012
5.30841e-012
4.19338e-012
5.55943e-012
3.00033e-012
6.4831e-012
2.76116e-012
6.3006e-012
2.80895e-012
4.47404e-012
3.13634e-012
3.64473e-012
3.16854e-012
3.83861e-012
3.61545e-012
3.25383e-012
3.02906e-012
3.08754e-012
3.45232e-012
2.39978e-012
3.98427e-012
2.1802e-012
4.18957e-012
1.97259e-012
4.15952e-012
2.31829e-012
2.87229e-012
3.63651e-012
1.99484e-012
3.71186e-012
1.65783e-012
3.81397e-012
1.72901e-012
3.49784e-012
1.64343e-012
2.8519e-012
1.32758e-012
3.60363e-012
1.29386e-012
3.82965e-012
1.3018e-012
3.46258e-012
1.36954e-012
1.81928e-012
1.515e-012
1.4629e-012
2.28225e-012
1.54554e-012
2.4611e-012
1.47121e-012
1.58915e-012
2.40987e-012
1.01732e-012
1.50242e-012
1.29265e-012
1.64995e-012
1.54711e-012
1.28226e-012
1.14596e-012
8.89654e-013
2.51995e-012
6.76142e-012
1.68916e-011
4.27056e-011
1.00092e-010
2.40595e-010
5.64504e-010
1.31998e-009
3.04449e-009
6.94979e-009
1.56718e-008
3.49207e-008
7.68472e-008
1.66979e-007
3.58132e-007
7.57931e-007
1.58224e-006
3.25697e-006
6.60815e-006
1.32095e-005
2.60037e-005
5.03856e-005
9.60418e-005
0.000179984
0.000331387
0.000599009
0.00106208
0.00184537
0.0031385
0.00521786
0.00846665
0.0133828
0.0205574
0.0305972
0.0439561
0.0606467
0.0798445
0.0995527
0.117141
0.133928
0.168758
0.262265
0.455106
0.783447
1.28154
1.98146
2.9086
4.07602
5.48166
7.11193
8.94668
10.9623
13.1333
15.4357
17.8485
20.3543
22.9378
25.5865
28.2908
31.0428
33.8361
36.6654
39.5266
42.4164
45.332
48.2711
51.2317
54.2121
57.2108
60.2263
63.2576
66.3036
69.3632
72.4357
75.52
78.6155
81.7212
84.8365
87.9607
91.0931
94.233
97.3799
100.533
103.692
106.857
110.026
113.2
116.377
119.558
122.742
125.929
129.117
132.308
135.5
138.693
141.887
145.081
148.275
151.469
154.662
157.854
161.043
164.234
167.418
170.603
173.781
176.958
180.132
183.298
186.461
189.617
192.765
195.908
199.041
202.164
205.277
208.38
211.467
214.541
217.6
220.641
223.661
226.66
229.635
232.583
235.5
238.384
241.232
244.037
246.797
249.506
252.16
254.75
257.272
259.719
262.083
264.358
266.535
268.607
270.568
272.411
274.132
275.725
277.19
278.526
279.735
280.823
281.796
282.664
283.436
284.126
284.745
285.307
285.821
286.298
286.746
287.171
287.577
287.966
288.336
288.677
288.974
289.209
289.406
289.607
289.821
290.045
290.277
290.515
290.761
291.02
291.311
291.666
292.131
292.782
293.554
294.262
294.839
295.315
295.727
296.097
296.435
296.745
297.029
297.289
297.524
297.735
297.925
298.096
298.253
298.399
298.534
298.66
298.779
298.891
298.992
299.074
299.133
299.164
299.165
299.153
299.156
299.184
299.238
299.319
299.431
299.58
299.769
300.01
300.322
300.748
301.136
301.401
301.702
302.1
302.583
303.124
303.695
304.267
304.814
305.315
305.756
306.124
306.424
306.661
306.83
306.955
307.094
307.303
307.644
308.196
308.996
310.027
311.254
312.642
313.966
316.904
317.362
317.856
318.155
318.175
318.08
317.911
317.701
317.504
317.324
317.159
317.003
316.851
316.698
316.544
316.387
316.227
316.062
315.888
315.713
315.529
315.339
315.15
314.953
314.752
314.565
314.372
314.169
313.979
313.786
313.599
313.415
313.237
313.068
312.908
312.759
312.621
312.497
312.385
312.286
312.201
312.122
312.056
312.01
311.976
311.959
311.955
311.962
311.979
312.006
312.036
312.075
312.124
312.173
312.226
312.28
312.334
312.393
312.449
312.503
312.558
312.61
312.659
312.705
312.747
312.786
312.821
312.852
312.88
312.904
312.925
312.942
312.956
312.967
312.975
312.981
312.984
312.986
312.984
312.981
312.976
312.97
312.961
312.951
312.939
312.926
312.91
312.893
312.873
312.852
312.828
312.802
312.774
312.743
312.708
312.672
312.631
312.592
312.55
312.498
312.446
210.617
211.705
213.314
214.195
214.329
213.917
212.937
211.246
208.923
206.096
202.824
199.301
195.695
192.124
188.673
185.4
182.335
179.464
176.751
174.165
171.669
169.252
166.905
164.593
162.276
159.932
157.543
155.097
152.576
149.972
147.276
144.485
141.595
138.593
135.44
132.047
128.246
123.769
118.262
111.34
102.715
92.3331
80.4472
67.5694
54.3399
41.4405
29.4942
19.2232
11.9834
7.90567
4.99139
2.57515
0.960605
0.278564
0.0656766
0.0137849
0.00281915
0.00057777
0.000118868
2.4463e-005
5.01646e-006
1.02153e-006
2.05956e-007
4.09936e-008
8.02815e-009
1.53913e-009
2.86978e-010
5.02437e-011
7.59416e-012
1.4192e-012
1.87862e-012
2.29325e-012
2.11549e-012
1.83172e-012
2.10495e-012
1.28822e-012
2.51964e-012
1.09881e-012
1.6858e-012
1.23511e-012
1.52206e-012
1.16753e-012
1.4521e-012
1.07361e-012
9.29052e-013
1.1437e-012
1.77908e-012
1.13301e-012
2.31116e-012
1.25608e-012
1.99529e-012
1.30098e-012
2.0799e-012
1.6243e-012
2.30498e-012
1.36209e-012
2.23547e-012
1.6899e-012
2.43816e-012
1.79667e-012
2.0347e-012
1.43727e-012
1.8103e-012
1.21806e-012
1.39677e-012
6.36535e-013
9.62257e-013
7.40885e-013
1.00414e-012
1.13901e-012
1.20182e-012
1.52909e-012
1.36425e-012
1.81075e-012
1.43043e-012
1.408e-012
1.14654e-012
1.00561e-012
7.33406e-013
1.54317e-012
4.21066e-013
1.70372e-012
4.67409e-013
1.3428e-012
4.5725e-013
1.55272e-012
5.38102e-013
1.17089e-012
5.44748e-013
1.29515e-012
7.88361e-013
1.54876e-012
9.45237e-013
1.20957e-012
1.5407e-012
1.59016e-012
1.78407e-012
1.59303e-012
1.67959e-012
1.20299e-012
1.89723e-012
1.36978e-012
2.05399e-012
1.47398e-012
1.99451e-012
1.27782e-012
1.95692e-012
1.27652e-012
1.51389e-012
1.52755e-012
312.251
311.947
311.57
311.079
310.377
309.334
308.039
306.791
305.759
304.961
304.355
303.894
303.548
303.299
303.135
303.054
303.059
303.154
303.351
303.637
303.971
304.309
304.609
304.858
305.063
305.231
305.372
305.504
305.643
305.795
305.952
306.093
306.199
306.267
306.309
306.331
306.325
306.269
306.153
305.985
305.769
305.498
305.166
304.77
304.297
303.654
302.685
301.12
298.269
292.427
278.285
238.398
152.136
59.2285
15.5958
3.35919
0.653104
0.122849
0.0229373
0.00427648
0.000797118
0.000148581
2.76979e-005
5.16407e-006
9.62972e-007
1.79607e-007
3.35056e-008
6.25284e-009
1.16653e-009
2.19213e-010
3.99725e-011
8.8996e-012
8.62023e-013
1.0664e-012
2.29725e-013
4.09994e-013
3.23078e-013
5.22709e-013
3.36222e-013
2.94901e-013
6.47987e-013
6.70731e-013
5.35595e-013
9.06181e-013
3.87632e-013
2.80325e-013
4.60448e-013
7.87995e-013
1.98964e-013
1.31004e-012
6.97532e-013
1.48641e-012
2.83653e-013
1.18982e-012
5.5139e-013
1.3775e-012
2.54575e-013
1.32515e-012
3.03247e-013
1.61629e-012
4.33931e-013
1.9229e-012
4.26007e-013
1.05364e-012
3.89351e-013
9.71178e-013
6.93797e-013
1.41671e-012
4.70252e-013
1.7895e-012
4.50409e-013
2.14102e-012
3.97494e-013
1.84677e-012
7.89198e-013
6.44861e-013
1.69536e-012
8.09556e-013
3.01413e-012
1.35973e-012
2.59602e-012
2.29417e-012
2.34002e-012
2.8662e-012
2.87416e-012
2.46815e-012
2.99208e-012
1.69833e-012
3.21449e-012
1.5801e-012
4.03219e-012
1.93818e-012
3.71114e-012
2.85697e-012
2.8998e-012
3.46767e-012
2.90788e-012
1.95266e-012
3.75402e-012
3.62617e-013
4.63822e-012
5.19058e-013
4.2356e-012
1.52442e-012
2.91213e-012
2.24467e-012
2.63612e-012
3.63839e-012
2.8131e-012
2.9584e-012
)
;

boundaryField
{
    inlet
    {
        type            calculated;
        value           nonuniform List<scalar> 2(5.81373e-012 4.17908e-012);
    }
    outlet
    {
        type            calculated;
        value           nonuniform List<scalar> 2(2.9584e-012 1.52755e-012);
    }
    bottom
    {
        type            symmetryPlane;
    }
    top
    {
        type            symmetryPlane;
    }
    obstacle
    {
        type            calculated;
        value           nonuniform List<scalar> 
102
(
159.27
210.617
317.362
317.856
318.155
318.175
318.08
317.911
317.701
317.504
317.324
317.159
317.003
316.851
316.698
316.544
316.387
316.227
316.062
315.888
315.713
315.529
315.339
315.15
314.953
314.752
314.565
314.372
314.169
313.979
313.786
313.599
313.415
313.237
313.068
312.908
312.759
312.621
312.497
312.385
312.286
312.201
312.122
312.056
312.01
311.976
311.959
311.955
311.962
311.979
312.006
312.036
312.075
312.124
312.173
312.226
312.28
312.334
312.393
312.449
312.503
312.558
312.61
312.659
312.705
312.747
312.786
312.821
312.852
312.88
312.904
312.925
312.942
312.956
312.967
312.975
312.981
312.984
312.986
312.984
312.981
312.976
312.97
312.961
312.951
312.939
312.926
312.91
312.893
312.873
312.852
312.828
312.802
312.774
312.743
312.708
312.672
312.631
312.592
312.55
312.498
312.446
)
;
    }
    defaultFaces
    {
        type            empty;
    }
}


// ************************************************************************* //
