/*--------------------------------*- C++ -*----------------------------------*\
| =========                 |                                                 |
| \\      /  F ield         | OpenFOAM: The Open Source CFD Toolbox           |
|  \\    /   O peration     | Version:  5.x                                   |
|   \\  /    A nd           | Web:      www.OpenFOAM.org                      |
|    \\/     M anipulation  |                                                 |
\*---------------------------------------------------------------------------*/
/*   Windows 32 and 64 bit porting by blueCAPE: http://www.bluecape.com.pt   *\
|  Based on Windows porting (2.0.x v4) by Symscape: http://www.symscape.com   |
\*---------------------------------------------------------------------------*/
FoamFile
{
    version     2.0;
    format      ascii;
    class       volScalarField;
    location    "0.005";
    object      mag(U);
}
// * * * * * * * * * * * * * * * * * * * * * * * * * * * * * * * * * * * * * //

dimensions      [0 1 -1 0 0 0 0];

internalField   nonuniform List<scalar> 
100
(
8.90981
44.7236
130.675
232.108
298.632
281.568
8.44514
41.6518
127.656
239.024
310.472
292.322
8.33778
40.7905
125.142
230.015
301.649
298.214
8.21372
39.9058
124.558
232.437
305.967
307.036
8.13955
39.3114
123.319
229.97
303.888
317.678
7.98183
38.3022
122.858
232.064
308.13
333.438
8.27317
40.3198
125.055
234.305
307.704
323.064
7.85401
37.587
121.906
232.417
308.359
329.157
8.24515
40.3722
124.517
233.688
307.459
318.588
8.08773
39.3753
122.871
232.63
307.189
320.143
328.574
319.096
312.659
294.658
320.95
302.788
304.224
281.581
307.522
286.068
71.4332
71.0946
7.31829
139.641
81.4424
10.0088
222.805
102.978
12.2057
283.311
136.103
14.669
305.512
164.892
17.045
310.619
181.309
21.2152
279.711
184.317
22.7892
282.429
193.796
27.0918
259.054
181.21
27.5926
265.265
187.574
28.3154
)
;

boundaryField
{
    inlet
    {
        type            calculated;
        value           nonuniform List<scalar> 10(7.98183 8.27317 7.85401 8.24515 8.08773 8.90981 8.44514 8.33778 8.21372 8.13955);
    }
    outlet
    {
        type            calculated;
        value           nonuniform List<scalar> 10(21.2152 22.7892 27.0918 27.5926 28.3154 7.31829 10.0088 12.2057 14.669 17.045);
    }
    bottom
    {
        type            symmetryPlane;
    }
    top
    {
        type            symmetryPlane;
    }
    obstacle
    {
        type            calculated;
        value           nonuniform List<scalar> 
12
(
281.568
292.322
298.214
307.036
317.678
71.4332
139.641
222.805
283.311
305.512
328.574
319.096
)
;
    }
    defaultFaces
    {
        type            empty;
    }
}


// ************************************************************************* //
