/*--------------------------------*- C++ -*----------------------------------*\
| =========                 |                                                 |
| \\      /  F ield         | OpenFOAM: The Open Source CFD Toolbox           |
|  \\    /   O peration     | Version:  5.x                                   |
|   \\  /    A nd           | Web:      www.OpenFOAM.org                      |
|    \\/     M anipulation  |                                                 |
\*---------------------------------------------------------------------------*/
/*   Windows 32 and 64 bit porting by blueCAPE: http://www.bluecape.com.pt   *\
|  Based on Windows porting (2.0.x v4) by Symscape: http://www.symscape.com   |
\*---------------------------------------------------------------------------*/
FoamFile
{
    version     2.0;
    format      ascii;
    class       volScalarField;
    location    "0.005";
    object      p;
}
// * * * * * * * * * * * * * * * * * * * * * * * * * * * * * * * * * * * * * //

dimensions      [1 -1 -2 0 0 0 0];

internalField   nonuniform List<scalar> 
100
(
96919.1
81392.3
57851
39073.9
34541.6
28092.8
97076
82083.9
59250.4
40338.8
35825.5
29191
97122.3
82274.3
59593.5
40369.2
35970.1
29447.8
97171.1
82499.4
60095.1
40858
36405.3
29857.2
97200.3
82618.1
60312
40956.1
36528.2
30010.2
97256.8
82886.7
60923.8
41389.7
36994.4
30283.1
97185.9
82393.1
59763.3
40651.4
36146.2
30012
97320
83071.6
61639.9
42011.8
37254.4
30766.2
97143.2
82054.7
58418.4
39194.1
34782.9
28579.4
97257.9
82763.7
60595.7
41995.8
37705.7
31648.8
26837.9
25873.3
27507.8
26903.3
28374.4
27780.2
27599.5
27337.3
30116.8
29727
21286
14533.6
10340.8
21365.1
15744.6
10466.3
20758.6
16151.1
10570.5
20583.7
16396
10642.7
21157.1
16513.3
10694.6
23165.5
16637.8
10765.7
25389.2
17241.6
10803.6
26483.6
18521.6
10929.1
26453.1
19594.3
10967.9
28566.2
20272.4
11003.1
)
;

boundaryField
{
    inlet
    {
        type            zeroGradient;
    }
    outlet
    {
        type            zeroGradient;
    }
    bottom
    {
        type            symmetryPlane;
    }
    top
    {
        type            symmetryPlane;
    }
    obstacle
    {
        type            zeroGradient;
    }
    defaultFaces
    {
        type            empty;
    }
}


// ************************************************************************* //
