/*--------------------------------*- C++ -*----------------------------------*\
| =========                 |                                                 |
| \\      /  F ield         | OpenFOAM: The Open Source CFD Toolbox           |
|  \\    /   O peration     | Version:  5.x                                   |
|   \\  /    A nd           | Web:      www.OpenFOAM.org                      |
|    \\/     M anipulation  |                                                 |
\*---------------------------------------------------------------------------*/
/*   Windows 32 and 64 bit porting by blueCAPE: http://www.bluecape.com.pt   *\
|  Based on Windows porting (2.0.x v4) by Symscape: http://www.symscape.com   |
\*---------------------------------------------------------------------------*/
FoamFile
{
    version     2.0;
    format      ascii;
    class       surfaceScalarField;
    location    "0.005";
    object      phi;
}
// * * * * * * * * * * * * * * * * * * * * * * * * * * * * * * * * * * * * * //

dimensions      [1 0 -1 0 0 0 0];

internalField   nonuniform List<scalar> 
174
(
7.61713
-0.834045
18.746
-1.10474
26.0951
-1.02734
22.7989
-1.25549
18.53
-0.260965
-2.44102
4.48039
-0.90685
10.9388
-1.02199
15.6387
-1.33931
13.6058
-1.72327
11.2046
-0.170044
-3.28505
3.04132
-1.02711
7.75514
-1.33989
11.1843
-1.65027
9.99765
-2.11814
8.43598
-0.26351
-3.64577
1.94626
-1.03833
4.936
-1.41697
7.17666
-1.78052
6.39578
-2.40887
5.48677
-0.356298
-3.81501
1.29795
-1.04949
3.3549
-1.52931
4.90318
-1.8641
4.4067
-2.61422
3.84104
-0.492387
-3.90594
5.31351
-0.945488
13.8909
-1.97414
20.8087
-2.49006
18.7074
-3.5731
17.3768
-1.98796
-3.05255
12.9003
9.98841
-1.12133
25.1943
-1.77249
36.8363
-2.20075
32.71
-3.67013
28.457
-1.7771
-3.40314
22.2273
16.4904
-0.259377
43.2232
-1.25421
66.4791
-2.00355
59.6839
-3.03931
53.425
-2.08721
-1.33235
41.4478
31.6085
0.432813
79.8257
2.27615
113.969
7.35328
100.496
3.85882
86.9342
2.94441
1.48169
68.1475
54.75
139.882
208.951
189.112
167.835
130.886
12.1152
-1.42762
-1.92409
11.8955
20.7916
-1.12752
-1.59328
19.8337
38.798
-0.503791
-0.615362
36.7858
64.3357
0.353791
0.259345
61.9002
123.124
118.116
3.43817
-4.15897
1.40145
-5.10406
-0.297919
1.9624
-6.3239
0.740913
-8.80413
-1.3321
1.90981
-7.34714
0.645889
-10.2797
-2.08299
1.7663
-8.00951
0.637633
-10.8612
-2.43464
1.54593
-8.41263
0.546373
-11.0178
-2.57333
8.64956
-6.01385
3.12202
-10.0759
-2.42069
16.4014
-3.69598
5.83833
-7.836
-1.91635
32.8772
-1.11591
11.6857
-3.04934
-0.611758
58.0937
0.158839
20.4637
-0.129519
-0.00723052
110.284
38.2033
)
;

boundaryField
{
    inlet
    {
        type            calculated;
        value           nonuniform List<scalar> 10(-1.20691 -2.22919 -3.7606 -7.01158 -12.2593 -1.58575 -1.00684 -0.665526 -0.438394 -0.290607);
    }
    outlet
    {
        type            calculated;
        value           nonuniform List<scalar> 10(0.381294 0.767612 1.65864 2.99132 5.44095 0.133963 0.134135 0.112928 0.0927858 0.0745562);
    }
    bottom
    {
        type            symmetryPlane;
        value           uniform 0;
    }
    top
    {
        type            symmetryPlane;
        value           uniform 0;
    }
    obstacle
    {
        type            calculated;
        value           nonuniform List<scalar> 
12
(
14.8821
8.54077
6.60827
4.31206
3.07606
-1.92505
-1.37591
-1.65868
-1.57615
-1.42355
1.54541
1.7288
)
;
    }
    defaultFaces
    {
        type            empty;
        value           nonuniform 0();
    }
}


// ************************************************************************* //
