/*--------------------------------*- C++ -*----------------------------------*\
| =========                 |                                                 |
| \\      /  F ield         | OpenFOAM: The Open Source CFD Toolbox           |
|  \\    /   O peration     | Version:  5.x                                   |
|   \\  /    A nd           | Web:      www.OpenFOAM.org                      |
|    \\/     M anipulation  |                                                 |
\*---------------------------------------------------------------------------*/
/*   Windows 32 and 64 bit porting by blueCAPE: http://www.bluecape.com.pt   *\
|  Based on Windows porting (2.0.x v4) by Symscape: http://www.symscape.com   |
\*---------------------------------------------------------------------------*/
FoamFile
{
    version     2.0;
    format      ascii;
    class       volScalarField;
    location    "0.005";
    object      T;
}
// * * * * * * * * * * * * * * * * * * * * * * * * * * * * * * * * * * * * * //

dimensions      [0 0 0 1 0 0 0];

internalField   nonuniform List<scalar> 
100
(
345.125
329.466
285.391
310.401
372.3
392.289
345.316
330.101
285.827
313.66
374.311
391.711
345.364
330.439
286.45
310.972
372.755
394.944
345.423
330.638
286.688
312.664
374.988
396.034
345.456
330.829
286.893
312.169
375.479
398.545
345.521
331.029
288.327
313.242
373.227
395.438
345.435
330.49
287.757
312.794
372.594
395.386
345.59
331.275
288.945
314.151
374.943
396.988
345.392
330.088
285.427
309.263
369.678
389.991
345.516
330.904
288.134
314.683
378.007
401.366
394.418
385.466
396.065
390.744
398.844
395.309
394.809
390.792
404.882
400.578
346.608
313.309
281.665
351.301
319.842
282.608
358.75
327.443
283.515
360.985
334.645
284.388
359.35
335.403
285.125
369.891
335.262
286.179
374.893
337.07
286.655
378.15
344.179
288.052
375.865
349.578
288.35
384.781
353.595
288.732
)
;

boundaryField
{
    inlet
    {
        type            zeroGradient;
    }
    outlet
    {
        type            zeroGradient;
    }
    bottom
    {
        type            symmetryPlane;
    }
    top
    {
        type            symmetryPlane;
    }
    obstacle
    {
        type            zeroGradient;
    }
    defaultFaces
    {
        type            empty;
    }
}


// ************************************************************************* //
