/*--------------------------------*- C++ -*----------------------------------*\
| =========                 |                                                 |
| \\      /  F ield         | OpenFOAM: The Open Source CFD Toolbox           |
|  \\    /   O peration     | Version:  5.x                                   |
|   \\  /    A nd           | Web:      www.OpenFOAM.org                      |
|    \\/     M anipulation  |                                                 |
\*---------------------------------------------------------------------------*/
/*   Windows 32 and 64 bit porting by blueCAPE: http://www.bluecape.com.pt   *\
|  Based on Windows porting (2.0.x v4) by Symscape: http://www.symscape.com   |
\*---------------------------------------------------------------------------*/
FoamFile
{
    version     2.0;
    format      ascii;
    class       volVectorField;
    location    "0.005";
    object      U;
}
// * * * * * * * * * * * * * * * * * * * * * * * * * * * * * * * * * * * * * //

dimensions      [0 1 -1 0 0 0 0];

internalField   nonuniform List<vector> 
100
(
(8.88055 0.721387 0)
(44.3491 5.77528 0)
(129.129 20.0401 0)
(229.841 32.3596 0)
(295.118 45.683 0)
(279.405 34.8282 0)
(8.43275 -0.45733 0)
(41.5495 -2.91863 0)
(127.19 -10.8896 -4.49302e-018)
(238.241 -19.3289 9.85396e-018)
(309.383 -25.9805 0)
(290.57 -31.954 3.76215e-017)
(8.33573 0.184557 0)
(40.7412 2.00536 0)
(124.935 7.20331 0)
(229.753 10.9905 0)
(301.142 17.4814 0)
(298.212 1.08188 1.39592e-017)
(8.21096 -0.213046 0)
(39.8938 -0.979011 -1.10964e-018)
(124.503 -3.72382 1.80483e-018)
(232.323 -7.28064 0)
(305.85 -8.48404 0)
(306.512 -17.9204 1.03419e-017)
(8.13949 0.0319449 -3.43263e-019)
(39.3046 0.728952 5.3036e-019)
(123.293 2.50942 0)
(229.951 2.93979 -3.21221e-018)
(303.825 6.17439 5.94089e-018)
(317.566 -8.42579 7.57555e-018)
(7.96462 -0.523798 0)
(38.2162 -2.56445 0)
(122.624 -7.57327 0)
(231.59 -14.8253 0)
(307.604 -18.0051 0)
(332.531 -24.5662 0)
(8.27317 0.000881364 0)
(40.3005 1.24867 0)
(124.934 5.48359 0)
(234.207 6.80165 0)
(307.521 10.6011 0)
(323.062 -1.33103 0)
(7.8466 -0.341123 0)
(37.5054 -2.47548 0)
(121.535 -9.49413 0)
(231.768 -17.354 0)
(307.551 -22.3123 0)
(328.325 -23.3902 0)
(8.24102 0.260965 0)
(40.3171 2.10892 0)
(124.073 10.5121 0)
(233.294 13.5629 0)
(306.923 18.1409 0)
(318.115 17.3417 0)
(8.08745 -0.0668418 0)
(39.3708 -0.59697 0)
(122.846 -2.51993 0)
(232.592 -4.19875 0)
(307.156 -4.47796 0)
(320.108 -4.76395 0)
(327.453 -27.1146 0)
(317.571 -31.1603 0)
(312.442 -11.6367 0)
(293.69 -23.8741 0)
(319.959 -25.2036 0)
(301.668 -26.0238 0)
(303.875 14.5649 0)
(281.357 11.2332 0)
(307.492 -4.24558 0)
(286.045 -3.61621 0)
(70.0013 -14.2308 1.25899e-016)
(70.5215 9.00859 -5.34732e-017)
(7.02853 2.03889 0)
(124.005 -64.2064 9.24221e-017)
(74.3316 -33.2819 1.28713e-017)
(10.0023 -0.361252 -5.67174e-018)
(200.98 -96.1724 0)
(93.8025 -42.4907 0)
(12.0829 -1.72727 0)
(257.585 -117.962 3.98749e-017)
(127.405 -47.8733 -8.22252e-018)
(14.3722 -2.93579 0)
(285.245 -109.422 1.30723e-017)
(157.321 -49.3891 0)
(16.8294 -2.70209 0)
(298.177 -87.0321 0)
(171.945 -57.5132 0)
(19.8839 -7.39716 0)
(274.894 -51.6919 0)
(179.589 -41.4807 0)
(22.4069 -4.1568 0)
(281.064 -27.7309 0)
(192.336 -23.7457 0)
(26.9746 -2.5166 0)
(258.982 6.10108 0)
(181.209 -0.837853 0)
(27.5926 -0.0469613 0)
(265.251 -2.75648 0)
(187.572 -0.750262 0)
(28.3154 -0.00600558 0)
)
;

boundaryField
{
    inlet
    {
        type            zeroGradient;
    }
    outlet
    {
        type            zeroGradient;
    }
    bottom
    {
        type            symmetryPlane;
    }
    top
    {
        type            symmetryPlane;
    }
    obstacle
    {
        type            zeroGradient;
    }
    defaultFaces
    {
        type            empty;
    }
}


// ************************************************************************* //
