/*--------------------------------*- C++ -*----------------------------------*\
| =========                 |                                                 |
| \\      /  F ield         | OpenFOAM: The Open Source CFD Toolbox           |
|  \\    /   O peration     | Version:  5.x                                   |
|   \\  /    A nd           | Web:      www.OpenFOAM.org                      |
|    \\/     M anipulation  |                                                 |
\*---------------------------------------------------------------------------*/
/*   Windows 32 and 64 bit porting by blueCAPE: http://www.bluecape.com.pt   *\
|  Based on Windows porting (2.0.x v4) by Symscape: http://www.symscape.com   |
\*---------------------------------------------------------------------------*/
FoamFile
{
    version     2.0;
    format      ascii;
    class       volScalarField;
    location    "0.0075";
    object      mag(U);
}
// * * * * * * * * * * * * * * * * * * * * * * * * * * * * * * * * * * * * * //

dimensions      [0 1 -1 0 0 0 0];

internalField   nonuniform List<scalar> 
100
(
17.7528
67.4952
153.595
223.455
264.185
285.84
17.7527
67.4963
153.589
223.542
264.298
285.67
17.7525
67.4975
153.583
223.636
264.433
285.813
17.7524
67.4985
153.578
223.718
264.565
286.617
17.7523
67.4992
153.574
223.785
264.677
288.252
17.7521
67.5008
153.565
223.911
264.846
296.605
17.7515
67.505
153.535
224.139
265.01
296.122
17.75
67.513
153.46
224.534
265.214
294.512
17.7469
67.5244
153.327
224.572
264.812
292.16
17.7446
67.5333
153.219
224.337
264.267
290.74
308.006
323.836
306.801
320.477
304.657
316.517
301.297
312.079
299.355
309.602
120.836
158.954
127.314
240.498
248.455
164.43
327.484
328.076
210.863
355.274
354.585
230.079
358.481
359.482
231.308
341.244
355.885
227.701
336.767
354.071
221.073
331.459
348.923
222.262
326.216
341.901
224.531
322.946
337.307
224.539
)
;

boundaryField
{
    inlet
    {
        type            calculated;
        value           nonuniform List<scalar> 10(17.7521 17.7515 17.75 17.7469 17.7446 17.7528 17.7527 17.7525 17.7524 17.7523);
    }
    outlet
    {
        type            calculated;
        value           nonuniform List<scalar> 10(227.701 221.073 222.262 224.531 224.539 127.314 164.43 210.863 230.079 231.308);
    }
    bottom
    {
        type            symmetryPlane;
    }
    top
    {
        type            symmetryPlane;
    }
    obstacle
    {
        type            calculated;
        value           nonuniform List<scalar> 
12
(
285.84
285.67
285.813
286.617
288.252
120.836
240.498
327.484
355.274
358.481
308.006
323.836
)
;
    }
    defaultFaces
    {
        type            empty;
    }
}


// ************************************************************************* //
