/*--------------------------------*- C++ -*----------------------------------*\
| =========                 |                                                 |
| \\      /  F ield         | OpenFOAM: The Open Source CFD Toolbox           |
|  \\    /   O peration     | Version:  5.x                                   |
|   \\  /    A nd           | Web:      www.OpenFOAM.org                      |
|    \\/     M anipulation  |                                                 |
\*---------------------------------------------------------------------------*/
/*   Windows 32 and 64 bit porting by blueCAPE: http://www.bluecape.com.pt   *\
|  Based on Windows porting (2.0.x v4) by Symscape: http://www.symscape.com   |
\*---------------------------------------------------------------------------*/
FoamFile
{
    version     2.0;
    format      ascii;
    class       volScalarField;
    location    "0.0075";
    object      p;
}
// * * * * * * * * * * * * * * * * * * * * * * * * * * * * * * * * * * * * * //

dimensions      [1 -1 -2 0 0 0 0];

internalField   nonuniform List<scalar> 
100
(
92092.5
75032.4
53400.3
38852.2
33292.8
33291.8
92092.5
75032.5
53399.8
38847.8
33298.3
33281.5
92092.4
75032.7
53399.2
38843.9
33296.2
33273.1
92092.4
75032.8
53398.8
38841
33291.9
33261.4
92092.4
75032.9
53398.4
38838.9
33287.6
33251.7
92092.4
75033.2
53397.5
38834.2
33273.2
33229.1
92092.4
75033.9
53394.1
38824.1
33227.4
33190.4
92092.2
75035.9
53382.7
38837.7
33110
32890.5
92091.7
75042.9
53378.6
38886.9
32880.6
32714.4
92091.1
75050.7
53373.8
38955.2
32908.9
32796.8
33042.6
32680.7
33066.3
32831.6
32610
32307.8
32503.3
32271.9
32649
32475.3
31401.6
31282.6
23114
31586.7
31402.8
22842.2
31627
31413.8
22727.7
31626
31393.3
22666.3
31608.4
31366.5
22623.9
31750.3
31318.9
22513.6
32274.5
31421.7
22368.7
31900.9
30983.7
21754.4
31966
30993.4
21494.8
32186.4
31319.4
22181.5
)
;

boundaryField
{
    inlet
    {
        type            zeroGradient;
    }
    outlet
    {
        type            zeroGradient;
    }
    bottom
    {
        type            symmetryPlane;
    }
    top
    {
        type            symmetryPlane;
    }
    obstacle
    {
        type            zeroGradient;
    }
    defaultFaces
    {
        type            empty;
    }
}


// ************************************************************************* //
