/*--------------------------------*- C++ -*----------------------------------*\
| =========                 |                                                 |
| \\      /  F ield         | OpenFOAM: The Open Source CFD Toolbox           |
|  \\    /   O peration     | Version:  5.x                                   |
|   \\  /    A nd           | Web:      www.OpenFOAM.org                      |
|    \\/     M anipulation  |                                                 |
\*---------------------------------------------------------------------------*/
/*   Windows 32 and 64 bit porting by blueCAPE: http://www.bluecape.com.pt   *\
|  Based on Windows porting (2.0.x v4) by Symscape: http://www.symscape.com   |
\*---------------------------------------------------------------------------*/
FoamFile
{
    version     2.0;
    format      ascii;
    class       surfaceScalarField;
    location    "0.0075";
    object      phi;
}
// * * * * * * * * * * * * * * * * * * * * * * * * * * * * * * * * * * * * * //

dimensions      [1 0 -1 0 0 0 0];

internalField   nonuniform List<scalar> 
174
(
11.6667
0.00293402
19.7516
-0.0198966
23.8978
0.0741236
21.3612
-0.12097
19.0773
0.853596
0.837464
7.80211
0.00477974
13.2083
-0.0325343
15.9862
0.118086
14.2874
-0.200899
12.7633
1.40305
1.39831
5.21765
0.00593619
8.83268
-0.0405325
10.6941
0.143593
9.55576
-0.256841
8.53616
1.74483
1.77338
3.48928
0.00666997
5.90662
-0.0456358
7.15327
0.158652
6.39381
-0.297391
5.72339
1.94719
2.02272
2.33344
0.00714284
3.94992
-0.0489252
4.78419
0.167976
4.2818
-0.33022
3.85261
2.06758
2.19092
9.90419
0.00894444
16.7645
-0.0619793
20.3142
0.197964
18.209
-0.499165
17.1633
1.7978
1.70612
16.1354
17.6132
0.0113033
29.808
-0.0798203
36.1515
0.211906
32.3642
-0.740556
30.4104
1.34578
0.90641
28.3922
31.3234
0.0129894
52.9877
-0.0919028
64.3749
0.162812
57.4718
-0.769617
53.3349
0.341351
-0.145004
49.1076
55.7046
0.00799689
94.1684
-0.0551825
114.499
0.097573
101.825
-0.500882
93.5395
-0.310426
-0.54339
85.7906
99.0599
167.376
203.467
180.833
165.654
151.787
16.0664
0.393384
0.240813
16.0276
28.2749
0.209527
0.0942754
27.9642
48.7405
-0.0869155
-0.193828
48.1051
85.2113
-0.174407
-0.240255
84.2578
150.816
149.283
7.32614
-0.562608
10.1655
-2.60664
-4.85528
8.88409
-0.657124
9.79158
-2.9026
-5.67846
7.66747
-0.800057
8.20645
-3.08113
-5.55501
5.56624
-0.939496
5.93653
-3.23547
-5.51365
3.80791
-1.0693
4.04067
-3.38614
-5.49877
15.3202
-0.432534
16.6351
-4.57792
-6.01157
27.3933
-0.355689
27.3117
-4.92889
-6.32643
47.745
-0.523949
47.3026
-4.91608
-10.012
83.8599
-0.422201
82.9816
-2.93775
-9.63805
148.663
149.78
)
;

boundaryField
{
    inlet
    {
        type            calculated;
        value           nonuniform List<scalar> 10(-2.70895 -4.81711 -8.56546 -15.229 -27.0778 -3.19135 -2.13417 -1.42719 -0.954413 -0.638251);
    }
    outlet
    {
        type            calculated;
        value           nonuniform List<scalar> 10(7.38 12.8531 22.6082 40.2653 73.3984 5.25294 4.35136 3.57827 2.60984 1.76492);
    }
    bottom
    {
        type            symmetryPlane;
        value           uniform 0;
    }
    top
    {
        type            symmetryPlane;
        value           uniform 0;
    }
    obstacle
    {
        type            calculated;
        value           nonuniform List<scalar> 
12
(
17.2242
11.5067
7.69558
5.1599
3.47129
-6.6096
-8.5128
-7.35378
-5.3252
-3.63796
-0.448797
-0.307393
)
;
    }
    defaultFaces
    {
        type            empty;
        value           nonuniform 0();
    }
}


// ************************************************************************* //
