/*--------------------------------*- C++ -*----------------------------------*\
| =========                 |                                                 |
| \\      /  F ield         | OpenFOAM: The Open Source CFD Toolbox           |
|  \\    /   O peration     | Version:  5.x                                   |
|   \\  /    A nd           | Web:      www.OpenFOAM.org                      |
|    \\/     M anipulation  |                                                 |
\*---------------------------------------------------------------------------*/
/*   Windows 32 and 64 bit porting by blueCAPE: http://www.bluecape.com.pt   *\
|  Based on Windows porting (2.0.x v4) by Symscape: http://www.symscape.com   |
\*---------------------------------------------------------------------------*/
FoamFile
{
    version     2.0;
    format      ascii;
    class       volScalarField;
    location    "0.0075";
    object      T;
}
// * * * * * * * * * * * * * * * * * * * * * * * * * * * * * * * * * * * * * //

dimensions      [0 0 0 1 0 0 0];

internalField   nonuniform List<scalar> 
100
(
339.633
324.35
276.336
282.127
304.02
367.176
339.633
324.35
276.334
282.111
304.12
367.195
339.633
324.35
276.333
282.097
304.217
367.226
339.633
324.35
276.331
282.103
304.029
367.138
339.633
324.35
276.329
282.147
303.269
366.902
339.633
324.35
276.326
282.165
302.643
346.456
339.633
324.349
276.32
282.133
302.954
348.072
339.633
324.349
276.308
282.117
303.535
348.902
339.633
324.353
276.319
282.167
303.585
349.598
339.632
324.36
276.328
282.276
303.889
350.455
380.877
384.268
377.858
383.102
376.847
382.131
376.604
382.038
377.17
382.717
380.221
379.597
371.298
396.538
394.469
382.744
418.429
412.794
397.298
419.19
411.592
396.515
413.701
407.363
393.462
397.788
401.977
391.214
399.419
403.019
385.334
397.718
401.244
380.179
397.748
400.338
378.792
398.529
400.732
382.335
)
;

boundaryField
{
    inlet
    {
        type            zeroGradient;
    }
    outlet
    {
        type            zeroGradient;
    }
    bottom
    {
        type            symmetryPlane;
    }
    top
    {
        type            symmetryPlane;
    }
    obstacle
    {
        type            zeroGradient;
    }
    defaultFaces
    {
        type            empty;
    }
}


// ************************************************************************* //
