/*--------------------------------*- C++ -*----------------------------------*\
| =========                 |                                                 |
| \\      /  F ield         | OpenFOAM: The Open Source CFD Toolbox           |
|  \\    /   O peration     | Version:  5.x                                   |
|   \\  /    A nd           | Web:      www.OpenFOAM.org                      |
|    \\/     M anipulation  |                                                 |
\*---------------------------------------------------------------------------*/
/*   Windows 32 and 64 bit porting by blueCAPE: http://www.bluecape.com.pt   *\
|  Based on Windows porting (2.0.x v4) by Symscape: http://www.symscape.com   |
\*---------------------------------------------------------------------------*/
FoamFile
{
    version     2.0;
    format      ascii;
    class       volVectorField;
    location    "0.0075";
    object      U;
}
// * * * * * * * * * * * * * * * * * * * * * * * * * * * * * * * * * * * * * //

dimensions      [0 1 -1 0 0 0 0];

internalField   nonuniform List<vector> 
100
(
(17.7528 0.000326184 0)
(67.4952 -0.00357129 0)
(153.595 0.0224917 0)
(223.455 -0.0722548 0)
(264.183 0.875115 0)
(285.836 1.33774 0)
(17.7527 0.000852561 0)
(67.4963 -0.00936383 0)
(153.589 0.0573609 0)
(223.542 -0.186548 0)
(264.288 2.22325 0)
(285.647 3.60371 0)
(17.7525 0.00117911 0)
(67.4975 -0.0130006 0)
(153.583 0.0771339 0)
(223.636 -0.261332 0)
(264.415 3.10785 0)
(285.765 5.25379 0)
(17.7524 0.0013857 0)
(67.4985 -0.0153181 0)
(153.578 0.088811 0)
(223.717 -0.31349 0)
(264.539 3.6444 0)
(286.55 6.16345 0)
(17.7523 0.00151843 0)
(67.4992 -0.0168082 0)
(153.574 0.0960171 0)
(223.784 -0.357206 0)
(264.647 4.03507 0)
(288.166 7.06042 0)
(17.7521 0.001773 0)
(67.5008 -0.0197492 0)
(153.565 0.109805 0)
(223.91 -0.479484 0)
(264.818 3.86338 0)
(296.537 6.3306 0)
(17.7515 0.0022845 0)
(67.505 -0.0260082 0)
(153.535 0.123339 0)
(224.138 -0.746757 0)
(264.99 3.23065 0)
(296.096 3.92452 0)
(17.75 0.002976 0)
(67.513 -0.0339233 0)
(153.46 0.114079 0)
(224.532 -0.937854 0)
(265.21 1.42622 0)
(294.512 0.502021 0)
(17.7469 0.0023718 0)
(67.5244 -0.0267594 0)
(153.327 0.0745123 0)
(224.571 -0.720262 0)
(264.812 -0.610805 0)
(292.153 -1.98365 0)
(17.7446 0.000692762 0)
(67.5333 -0.00779172 0)
(153.219 0.0234391 0)
(224.337 -0.235274 0)
(264.267 -0.456735 0)
(290.738 -0.923092 0)
(307.949 5.9499 0)
(323.81 4.13738 0)
(306.777 3.88822 0)
(320.467 2.48951 0)
(304.657 -0.0520356 0)
(316.513 -1.53871 0)
(301.284 -2.7335 0)
(312.055 -3.91681 0)
(299.353 -1.14012 0)
(309.599 -1.44944 0)
(120.427 -9.92628 0)
(158.555 -11.2601 0)
(127.148 -6.50286 0)
(240.467 -3.84284 0)
(248.35 -7.24967 0)
(164.249 -7.72316 0)
(327.354 -9.23212 0)
(327.858 -11.967 0)
(210.664 -9.15231 0)
(355.131 -10.0739 0)
(354.397 -11.529 0)
(229.91 -8.83489 0)
(358.237 -13.2148 0)
(359.25 -12.8959 0)
(231.134 -8.97079 0)
(341.218 -4.22665 0)
(355.627 -13.5624 0)
(227.522 -9.0124 0)
(336.741 -4.19792 0)
(353.493 -20.2254 0)
(220.915 -8.36361 0)
(331.414 -5.46173 0)
(348.356 -19.8921 0)
(221.686 -15.9965 0)
(326.164 -5.8136 0)
(341.647 -13.1831 0)
(223.894 -16.8999 0)
(322.94 -1.91959 0)
(337.286 -3.77231 0)
(224.469 -5.63231 0)
)
;

boundaryField
{
    inlet
    {
        type            zeroGradient;
    }
    outlet
    {
        type            zeroGradient;
    }
    bottom
    {
        type            symmetryPlane;
    }
    top
    {
        type            symmetryPlane;
    }
    obstacle
    {
        type            zeroGradient;
    }
    defaultFaces
    {
        type            empty;
    }
}


// ************************************************************************* //
