/*--------------------------------*- C++ -*----------------------------------*\
| =========                 |                                                 |
| \\      /  F ield         | OpenFOAM: The Open Source CFD Toolbox           |
|  \\    /   O peration     | Version:  5.x                                   |
|   \\  /    A nd           | Web:      www.OpenFOAM.org                      |
|    \\/     M anipulation  |                                                 |
\*---------------------------------------------------------------------------*/
/*   Windows 32 and 64 bit porting by blueCAPE: http://www.bluecape.com.pt   *\
|  Based on Windows porting (2.0.x v4) by Symscape: http://www.symscape.com   |
\*---------------------------------------------------------------------------*/
FoamFile
{
    version     2.0;
    format      ascii;
    class       volScalarField;
    location    "0.007";
    object      mag(U);
}
// * * * * * * * * * * * * * * * * * * * * * * * * * * * * * * * * * * * * * //

dimensions      [0 1 -1 0 0 0 0];

internalField   nonuniform List<scalar> 
10000
(
0.000330964
0.00182618
0.00789059
0.0317702
0.116434
0.382941
1.10964
2.84045
6.43838
12.9152
22.9403
36.2487
51.9235
68.6169
85.5894
102.289
118.682
134.464
149.876
164.615
178.694
192.292
205.035
217.062
228.376
238.804
248.269
256.875
264.547
270.961
276.35
280.929
284.5
287.32
289.497
290.827
291.707
292.29
292.4
292.395
292.48
292.599
292.749
292.925
293.118
293.305
293.458
293.532
293.494
293.376
293.218
293.038
292.845
292.655
292.5
292.376
292.256
292.184
292.142
292.076
0.000330964
0.00182618
0.00789059
0.0317702
0.116434
0.382941
1.10964
2.84045
6.43838
12.9152
22.9403
36.2487
51.9235
68.6169
85.5894
102.289
118.682
134.464
149.876
164.615
178.694
192.292
205.035
217.062
228.376
238.804
248.269
256.875
264.547
270.961
276.35
280.929
284.5
287.32
289.497
290.827
291.707
292.29
292.4
292.395
292.48
292.599
292.749
292.925
293.118
293.305
293.458
293.532
293.494
293.376
293.218
293.039
292.846
292.655
292.501
292.376
292.257
292.184
292.142
292.076
0.000330964
0.00182618
0.00789059
0.0317702
0.116434
0.382941
1.10964
2.84045
6.43838
12.9152
22.9403
36.2487
51.9235
68.6169
85.5894
102.289
118.682
134.464
149.876
164.615
178.694
192.292
205.035
217.062
228.376
238.804
248.269
256.875
264.547
270.961
276.35
280.929
284.5
287.32
289.497
290.827
291.707
292.29
292.4
292.395
292.48
292.599
292.749
292.925
293.118
293.305
293.458
293.532
293.495
293.376
293.219
293.039
292.846
292.656
292.501
292.377
292.258
292.185
292.143
292.078
0.000330964
0.00182618
0.00789059
0.0317702
0.116434
0.382941
1.10964
2.84045
6.43838
12.9152
22.9403
36.2487
51.9235
68.6169
85.5894
102.289
118.682
134.464
149.876
164.615
178.694
192.292
205.035
217.062
228.376
238.804
248.269
256.875
264.547
270.961
276.35
280.929
284.5
287.32
289.497
290.828
291.707
292.29
292.4
292.396
292.481
292.599
292.749
292.925
293.119
293.306
293.458
293.533
293.496
293.377
293.22
293.04
292.847
292.656
292.503
292.379
292.259
292.187
292.143
292.075
0.000330964
0.00182618
0.00789059
0.0317702
0.116434
0.382941
1.10964
2.84045
6.43838
12.9152
22.9403
36.2487
51.9235
68.6169
85.5894
102.289
118.682
134.464
149.876
164.615
178.694
192.292
205.035
217.062
228.376
238.804
248.269
256.875
264.547
270.961
276.35
280.929
284.5
287.32
289.497
290.828
291.708
292.29
292.401
292.397
292.481
292.6
292.749
292.925
293.118
293.305
293.459
293.534
293.497
293.379
293.222
293.041
292.848
292.657
292.505
292.38
292.259
292.189
292.145
292.077
0.000330964
0.00182618
0.00789059
0.0317702
0.116434
0.382941
1.10964
2.84045
6.43838
12.9152
22.9403
36.2487
51.9235
68.6169
85.5894
102.289
118.682
134.464
149.876
164.615
178.694
192.292
205.035
217.062
228.376
238.804
248.269
256.875
264.547
270.961
276.35
280.929
284.5
287.32
289.497
290.828
291.708
292.29
292.401
292.397
292.482
292.6
292.749
292.926
293.119
293.305
293.459
293.535
293.498
293.38
293.223
293.043
292.849
292.659
292.507
292.382
292.261
292.192
292.146
292.077
0.000330964
0.00182618
0.00789059
0.0317702
0.116434
0.382941
1.10964
2.84045
6.43838
12.9152
22.9403
36.2487
51.9235
68.6169
85.5894
102.289
118.682
134.464
149.876
164.615
178.694
192.292
205.035
217.062
228.376
238.804
248.269
256.875
264.547
270.961
276.35
280.929
284.5
287.32
289.497
290.828
291.708
292.291
292.402
292.398
292.482
292.6
292.75
292.926
293.12
293.306
293.46
293.536
293.499
293.381
293.224
293.046
292.851
292.66
292.509
292.384
292.263
292.195
292.149
292.079
0.000330964
0.00182618
0.00789059
0.0317702
0.116434
0.382941
1.10964
2.84045
6.43838
12.9152
22.9403
36.2487
51.9235
68.6169
85.5894
102.289
118.682
134.464
149.876
164.615
178.694
192.292
205.035
217.062
228.376
238.804
248.269
256.875
264.547
270.961
276.35
280.929
284.5
287.32
289.497
290.828
291.708
292.291
292.402
292.398
292.482
292.601
292.75
292.927
293.122
293.307
293.46
293.536
293.5
293.382
293.226
293.048
292.853
292.662
292.512
292.387
292.265
292.198
292.153
292.081
0.000330964
0.00182618
0.00789059
0.0317702
0.116434
0.382941
1.10964
2.84045
6.43838
12.9152
22.9403
36.2487
51.9235
68.6169
85.5894
102.289
118.682
134.464
149.876
164.615
178.694
192.292
205.035
217.062
228.376
238.804
248.269
256.875
264.547
270.961
276.35
280.929
284.5
287.32
289.497
290.828
291.708
292.291
292.402
292.398
292.483
292.601
292.751
292.928
293.123
293.309
293.461
293.536
293.5
293.383
293.228
293.05
292.856
292.664
292.515
292.39
292.268
292.202
292.157
292.085
0.000330964
0.00182618
0.00789059
0.0317702
0.116434
0.382941
1.10964
2.84045
6.43838
12.9152
22.9403
36.2487
51.9235
68.6169
85.5894
102.289
118.682
134.464
149.876
164.615
178.694
192.292
205.035
217.062
228.376
238.804
248.269
256.875
264.547
270.961
276.35
280.929
284.5
287.32
289.497
290.828
291.708
292.291
292.403
292.399
292.483
292.602
292.752
292.929
293.123
293.309
293.462
293.537
293.501
293.385
293.23
293.052
292.858
292.668
292.518
292.393
292.272
292.206
292.161
292.088
0.000330964
0.00182618
0.00789059
0.0317702
0.116434
0.382941
1.10964
2.84045
6.43838
12.9152
22.9403
36.2487
51.9235
68.6169
85.5894
102.289
118.682
134.464
149.876
164.615
178.694
192.292
205.035
217.062
228.376
238.804
248.269
256.875
264.547
270.961
276.35
280.929
284.5
287.32
289.497
290.828
291.708
292.291
292.403
292.4
292.484
292.603
292.753
292.93
293.124
293.31
293.462
293.538
293.502
293.386
293.231
293.054
292.861
292.671
292.521
292.397
292.278
292.21
292.163
292.093
0.000330964
0.00182618
0.00789059
0.0317702
0.116434
0.382941
1.10964
2.84045
6.43838
12.9152
22.9403
36.2487
51.9235
68.6169
85.5894
102.289
118.682
134.464
149.876
164.615
178.694
192.292
205.035
217.062
228.376
238.804
248.269
256.875
264.547
270.961
276.35
280.929
284.5
287.32
289.497
290.828
291.708
292.291
292.404
292.401
292.485
292.604
292.754
292.93
293.124
293.31
293.463
293.54
293.504
293.388
293.233
293.056
292.864
292.675
292.525
292.401
292.284
292.213
292.168
292.099
0.000330964
0.00182618
0.00789059
0.0317702
0.116434
0.382941
1.10964
2.84045
6.43838
12.9152
22.9403
36.2487
51.9235
68.6169
85.5894
102.289
118.682
134.464
149.876
164.615
178.694
192.292
205.035
217.062
228.376
238.804
248.269
256.875
264.547
270.961
276.35
280.929
284.5
287.32
289.497
290.828
291.708
292.292
292.404
292.402
292.487
292.605
292.754
292.931
293.125
293.311
293.464
293.541
293.506
293.39
293.235
293.058
292.867
292.679
292.529
292.406
292.29
292.219
292.172
292.104
0.000330964
0.00182618
0.00789059
0.0317702
0.116434
0.382941
1.10964
2.84045
6.43838
12.9152
22.9403
36.2487
51.9235
68.6169
85.5894
102.289
118.682
134.464
149.876
164.615
178.694
192.292
205.035
217.062
228.376
238.804
248.269
256.875
264.547
270.961
276.35
280.929
284.5
287.32
289.497
290.828
291.708
292.292
292.404
292.403
292.488
292.606
292.755
292.931
293.124
293.31
293.465
293.543
293.509
293.393
293.237
293.06
292.87
292.683
292.533
292.41
292.295
292.224
292.178
292.11
0.000330964
0.00182618
0.00789059
0.0317702
0.116434
0.382941
1.10964
2.84045
6.43838
12.9152
22.9403
36.2487
51.9235
68.6169
85.5894
102.289
118.682
134.464
149.876
164.615
178.694
192.292
205.035
217.062
228.376
238.804
248.269
256.875
264.547
270.961
276.35
280.929
284.5
287.32
289.497
290.828
291.709
292.292
292.404
292.404
292.49
292.608
292.756
292.931
293.124
293.31
293.467
293.545
293.511
293.395
293.24
293.063
292.873
292.687
292.537
292.414
292.3
292.232
292.185
292.115
0.000330964
0.00182618
0.00789059
0.0317702
0.116434
0.382941
1.10964
2.84045
6.43838
12.9152
22.9403
36.2487
51.9235
68.6169
85.5894
102.289
118.682
134.464
149.876
164.615
178.694
192.292
205.035
217.062
228.376
238.804
248.269
256.875
264.547
270.961
276.35
280.929
284.5
287.32
289.497
290.828
291.709
292.292
292.405
292.404
292.491
292.609
292.756
292.932
293.124
293.311
293.467
293.546
293.512
293.398
293.243
293.065
292.876
292.691
292.543
292.419
292.305
292.24
292.194
292.121
0.000330964
0.00182618
0.00789059
0.0317702
0.116434
0.382941
1.10964
2.84045
6.43838
12.9152
22.9403
36.2487
51.9235
68.6169
85.5894
102.289
118.682
134.464
149.876
164.615
178.694
192.292
205.035
217.062
228.376
238.804
248.269
256.875
264.547
270.961
276.35
280.929
284.5
287.32
289.497
290.828
291.709
292.292
292.405
292.405
292.493
292.61
292.757
292.932
293.125
293.311
293.468
293.548
293.514
293.4
293.245
293.068
292.879
292.696
292.55
292.424
292.309
292.248
292.201
292.126
0.000330964
0.00182618
0.00789059
0.0317702
0.116434
0.382941
1.10964
2.84045
6.43838
12.9152
22.9403
36.2487
51.9235
68.6169
85.5894
102.289
118.682
134.464
149.876
164.615
178.694
192.292
205.035
217.062
228.376
238.804
248.269
256.875
264.547
270.961
276.35
280.929
284.5
287.32
289.497
290.828
291.709
292.293
292.405
292.406
292.494
292.611
292.758
292.933
293.126
293.312
293.469
293.549
293.516
293.402
293.248
293.072
292.883
292.7
292.555
292.429
292.315
292.258
292.208
292.13
0.000330964
0.00182618
0.00789059
0.0317702
0.116434
0.382941
1.10964
2.84045
6.43838
12.9152
22.9403
36.2487
51.9235
68.6169
85.5894
102.289
118.682
134.464
149.876
164.615
178.694
192.292
205.035
217.062
228.376
238.804
248.269
256.875
264.547
270.961
276.35
280.929
284.5
287.32
289.497
290.828
291.709
292.293
292.406
292.406
292.494
292.612
292.759
292.934
293.127
293.313
293.47
293.55
293.518
293.404
293.251
293.076
292.887
292.704
292.56
292.434
292.321
292.268
292.215
292.135
0.000330964
0.00182618
0.00789059
0.0317702
0.116434
0.382941
1.10964
2.84045
6.43838
12.9152
22.9403
36.2487
51.9235
68.6169
85.5894
102.289
118.682
134.464
149.876
164.615
178.694
192.292
205.035
217.062
228.376
238.804
248.269
256.875
264.547
270.961
276.35
280.929
284.5
287.32
289.497
290.829
291.709
292.293
292.406
292.407
292.495
292.613
292.761
292.935
293.128
293.314
293.47
293.551
293.519
293.406
293.254
293.079
292.89
292.709
292.566
292.44
292.328
292.277
292.223
292.141
0.000330964
0.00182618
0.00789059
0.0317702
0.116434
0.382941
1.10964
2.84045
6.43838
12.9152
22.9403
36.2487
51.9235
68.6169
85.5894
102.289
118.682
134.464
149.876
164.615
178.694
192.292
205.035
217.062
228.376
238.804
248.269
256.875
264.547
270.961
276.35
280.929
284.5
287.32
289.497
290.829
291.709
292.293
292.406
292.407
292.496
292.614
292.762
292.936
293.129
293.315
293.471
293.552
293.521
293.408
293.256
293.081
292.893
292.714
292.574
292.446
292.335
292.286
292.231
292.148
0.000330964
0.00182618
0.00789059
0.0317702
0.116434
0.382941
1.10964
2.84045
6.43838
12.9152
22.9403
36.2487
51.9235
68.6169
85.5894
102.289
118.682
134.464
149.876
164.615
178.694
192.292
205.035
217.062
228.376
238.804
248.269
256.875
264.547
270.961
276.35
280.929
284.5
287.32
289.497
290.829
291.709
292.293
292.407
292.408
292.497
292.616
292.763
292.937
293.129
293.316
293.472
293.554
293.523
293.411
293.259
293.084
292.896
292.719
292.582
292.453
292.342
292.296
292.239
292.155
0.000330964
0.00182618
0.00789059
0.0317702
0.116434
0.382941
1.10964
2.84045
6.43838
12.9152
22.9403
36.2487
51.9235
68.6169
85.5894
102.289
118.682
134.464
149.876
164.615
178.694
192.292
205.035
217.062
228.376
238.804
248.269
256.875
264.547
270.961
276.35
280.929
284.5
287.32
289.497
290.829
291.71
292.294
292.407
292.409
292.498
292.617
292.764
292.938
293.13
293.316
293.473
293.555
293.524
293.413
293.261
293.086
292.899
292.724
292.588
292.459
292.35
292.307
292.248
292.163
0.000330964
0.00182618
0.00789059
0.0317702
0.116434
0.382941
1.10964
2.84045
6.43838
12.9152
22.9403
36.2487
51.9235
68.6169
85.5894
102.289
118.682
134.464
149.876
164.615
178.694
192.292
205.035
217.062
228.376
238.804
248.269
256.875
264.547
270.961
276.35
280.929
284.5
287.32
289.497
290.829
291.71
292.294
292.408
292.409
292.499
292.618
292.765
292.938
293.131
293.317
293.474
293.556
293.526
293.415
293.263
293.089
292.903
292.729
292.594
292.466
292.36
292.316
292.257
292.172
0.000330964
0.00182618
0.00789059
0.0317702
0.116434
0.382941
1.10964
2.84045
6.43838
12.9152
22.9403
36.2487
51.9235
68.6169
85.5894
102.289
118.682
134.464
149.876
164.615
178.694
192.292
205.035
217.062
228.376
238.804
248.269
256.875
264.547
270.961
276.35
280.929
284.5
287.32
289.497
290.829
291.71
292.294
292.408
292.41
292.5
292.619
292.766
292.939
293.131
293.318
293.475
293.558
293.528
293.417
293.266
293.092
292.906
292.734
292.599
292.473
292.369
292.326
292.267
292.182
0.000330964
0.00182618
0.00789059
0.0317702
0.116434
0.382941
1.10964
2.84045
6.43838
12.9152
22.9403
36.2487
51.9235
68.6169
85.5894
102.289
118.682
134.464
149.876
164.615
178.694
192.292
205.035
217.062
228.376
238.804
248.269
256.875
264.547
270.961
276.35
280.929
284.5
287.32
289.497
290.829
291.71
292.294
292.408
292.411
292.501
292.62
292.766
292.94
293.132
293.319
293.476
293.559
293.529
293.419
293.268
293.095
292.91
292.739
292.604
292.48
292.379
292.336
292.276
292.191
0.000330964
0.00182618
0.00789059
0.0317702
0.116434
0.382941
1.10964
2.84045
6.43838
12.9152
22.9403
36.2487
51.9235
68.6169
85.5894
102.289
118.682
134.464
149.876
164.615
178.694
192.292
205.035
217.062
228.376
238.804
248.269
256.875
264.547
270.961
276.35
280.929
284.5
287.32
289.498
290.829
291.71
292.294
292.409
292.412
292.502
292.62
292.767
292.94
293.133
293.319
293.477
293.561
293.531
293.42
293.271
293.098
292.914
292.743
292.61
292.489
292.39
292.345
292.285
292.202
0.000330964
0.00182618
0.00789059
0.0317702
0.116434
0.382941
1.10964
2.84045
6.43838
12.9152
22.9403
36.2487
51.9235
68.6169
85.5894
102.289
118.682
134.464
149.876
164.615
178.694
192.292
205.035
217.062
228.376
238.804
248.269
256.875
264.547
270.961
276.35
280.929
284.5
287.32
289.498
290.829
291.71
292.295
292.409
292.413
292.502
292.621
292.768
292.941
293.134
293.32
293.478
293.562
293.533
293.422
293.273
293.101
292.917
292.747
292.615
292.497
292.402
292.355
292.295
292.214
0.000330964
0.00182618
0.00789059
0.0317702
0.116434
0.382941
1.10964
2.84045
6.43838
12.9152
22.9403
36.2487
51.9235
68.6169
85.5894
102.289
118.682
134.464
149.876
164.615
178.694
192.292
205.035
217.062
228.376
238.804
248.269
256.875
264.547
270.961
276.35
280.929
284.501
287.32
289.498
290.829
291.71
292.295
292.41
292.413
292.503
292.622
292.768
292.941
293.134
293.321
293.479
293.564
293.534
293.423
293.275
293.104
292.921
292.751
292.621
292.506
292.413
292.365
292.305
292.225
0.000330964
0.00182618
0.00789059
0.0317702
0.116434
0.382941
1.10964
2.84045
6.43838
12.9152
22.9403
36.2487
51.9235
68.6169
85.5894
102.289
118.682
134.464
149.876
164.615
178.694
192.292
205.035
217.062
228.376
238.804
248.269
256.875
264.547
270.961
276.35
280.929
284.501
287.32
289.498
290.829
291.71
292.295
292.41
292.414
292.504
292.623
292.769
292.942
293.135
293.322
293.48
293.565
293.536
293.425
293.277
293.107
292.925
292.755
292.626
292.514
292.423
292.376
292.317
292.236
0.000330964
0.00182618
0.00789059
0.0317702
0.116434
0.382941
1.10964
2.84045
6.43838
12.9152
22.9403
36.2487
51.9235
68.6169
85.5894
102.289
118.682
134.464
149.876
164.615
178.694
192.292
205.035
217.062
228.376
238.804
248.269
256.875
264.547
270.961
276.35
280.929
284.501
287.32
289.498
290.829
291.711
292.295
292.411
292.415
292.505
292.624
292.77
292.943
293.136
293.323
293.481
293.566
293.537
293.427
293.279
293.11
292.928
292.76
292.632
292.521
292.432
292.389
292.33
292.246
0.000330964
0.00182618
0.00789059
0.0317702
0.116434
0.382941
1.10964
2.84045
6.43838
12.9152
22.9403
36.2487
51.9235
68.6169
85.5894
102.289
118.682
134.464
149.876
164.615
178.694
192.292
205.035
217.062
228.376
238.804
248.269
256.875
264.547
270.961
276.35
280.929
284.501
287.321
289.498
290.829
291.711
292.295
292.411
292.416
292.506
292.625
292.771
292.943
293.136
293.323
293.482
293.567
293.539
293.429
293.281
293.112
292.931
292.765
292.639
292.529
292.441
292.402
292.343
292.258
0.000330964
0.00182618
0.00789059
0.0317702
0.116434
0.382941
1.10964
2.84045
6.43838
12.9152
22.9403
36.2487
51.9235
68.6169
85.5894
102.289
118.682
134.464
149.876
164.615
178.694
192.292
205.035
217.062
228.376
238.804
248.269
256.875
264.547
270.961
276.35
280.929
284.501
287.321
289.498
290.829
291.711
292.296
292.411
292.416
292.507
292.626
292.771
292.944
293.137
293.324
293.483
293.568
293.54
293.431
293.284
293.114
292.934
292.77
292.646
292.536
292.451
292.416
292.357
292.269
0.000330964
0.00182618
0.00789059
0.0317702
0.116434
0.382941
1.10964
2.84045
6.43838
12.9152
22.9403
36.2487
51.9235
68.6169
85.5894
102.289
118.682
134.464
149.876
164.615
178.694
192.292
205.035
217.062
228.376
238.804
248.269
256.875
264.547
270.961
276.35
280.929
284.501
287.321
289.498
290.83
291.711
292.296
292.412
292.417
292.508
292.626
292.772
292.944
293.137
293.325
293.483
293.569
293.542
293.433
293.286
293.117
292.938
292.775
292.652
292.543
292.46
292.43
292.371
292.281
0.000330964
0.00182618
0.00789059
0.0317702
0.116434
0.382941
1.10964
2.84045
6.43838
12.9152
22.9403
36.2487
51.9235
68.6169
85.5894
102.289
118.682
134.464
149.876
164.615
178.694
192.292
205.035
217.062
228.376
238.804
248.269
256.875
264.547
270.961
276.35
280.929
284.501
287.321
289.498
290.83
291.711
292.296
292.412
292.417
292.509
292.627
292.773
292.945
293.138
293.325
293.484
293.571
293.543
293.435
293.288
293.12
292.941
292.78
292.659
292.551
292.471
292.445
292.387
292.295
0.000330964
0.00182618
0.00789059
0.0317702
0.116434
0.382941
1.10964
2.84045
6.43838
12.9152
22.9403
36.2487
51.9235
68.6169
85.5894
102.289
118.682
134.464
149.876
164.615
178.694
192.292
205.035
217.062
228.376
238.804
248.269
256.875
264.547
270.961
276.35
280.929
284.501
287.321
289.498
290.83
291.711
292.296
292.412
292.418
292.51
292.628
292.773
292.945
293.138
293.325
293.485
293.572
293.545
293.436
293.29
293.122
292.944
292.785
292.665
292.558
292.481
292.46
292.403
292.31
0.000330964
0.00182618
0.00789059
0.0317702
0.116434
0.382941
1.10964
2.84045
6.43838
12.9152
22.9403
36.2487
51.9235
68.6169
85.5894
102.289
118.682
134.464
149.876
164.615
178.694
192.292
205.035
217.062
228.376
238.804
248.269
256.875
264.547
270.961
276.35
280.929
284.501
287.321
289.498
290.83
291.711
292.296
292.413
292.419
292.51
292.629
292.774
292.946
293.138
293.326
293.485
293.573
293.546
293.438
293.293
293.125
292.948
292.79
292.672
292.565
292.493
292.475
292.42
292.326
0.000330964
0.00182618
0.00789059
0.0317702
0.116434
0.382941
1.10964
2.84045
6.43838
12.9152
22.9403
36.2487
51.9235
68.6169
85.5894
102.289
118.682
134.464
149.876
164.615
178.694
192.292
205.035
217.062
228.376
238.804
248.269
256.875
264.547
270.961
276.35
280.929
284.501
287.321
289.498
290.83
291.711
292.296
292.413
292.419
292.511
292.63
292.774
292.946
293.138
293.326
293.486
293.574
293.548
293.44
293.295
293.128
292.951
292.795
292.678
292.572
292.504
292.491
292.438
292.344
0.000330964
0.00182618
0.00789059
0.0317702
0.116434
0.382941
1.10964
2.84045
6.43838
12.9152
22.9403
36.2487
51.9235
68.6169
85.5894
102.289
118.682
134.464
149.876
164.615
178.694
192.292
205.035
217.062
228.376
238.804
248.269
256.875
264.547
270.961
276.35
280.929
284.501
287.321
289.498
290.83
291.711
292.297
292.413
292.42
292.512
292.631
292.775
292.947
293.139
293.326
293.487
293.575
293.549
293.441
293.297
293.131
292.955
292.8
292.683
292.579
292.516
292.507
292.457
292.363
0.000330964
0.00182618
0.00789059
0.0317702
0.116434
0.382941
1.10964
2.84045
6.43838
12.9152
22.9403
36.2487
51.9235
68.6169
85.5894
102.289
118.682
134.464
149.876
164.615
178.694
192.292
205.035
217.062
228.376
238.804
248.269
256.875
264.547
270.961
276.35
280.929
284.501
287.321
289.498
290.83
291.712
292.297
292.414
292.42
292.513
292.631
292.776
292.947
293.139
293.326
293.487
293.576
293.55
293.443
293.299
293.133
292.959
292.805
292.689
292.586
292.527
292.523
292.477
292.383
0.000330964
0.00182618
0.00789059
0.0317702
0.116434
0.382941
1.10964
2.84045
6.43838
12.9152
22.9403
36.2487
51.9235
68.6169
85.5894
102.289
118.682
134.464
149.876
164.615
178.694
192.292
205.035
217.062
228.376
238.804
248.269
256.875
264.547
270.961
276.35
280.929
284.501
287.321
289.498
290.83
291.712
292.297
292.414
292.421
292.513
292.632
292.776
292.948
293.139
293.326
293.488
293.576
293.552
293.445
293.301
293.136
292.962
292.811
292.695
292.593
292.538
292.538
292.498
292.405
0.000330964
0.00182618
0.00789059
0.0317702
0.116434
0.382941
1.10964
2.84045
6.43838
12.9152
22.9403
36.2487
51.9235
68.6169
85.5894
102.289
118.682
134.464
149.876
164.615
178.694
192.292
205.035
217.062
228.376
238.804
248.269
256.875
264.547
270.961
276.35
280.929
284.501
287.321
289.498
290.83
291.712
292.297
292.414
292.421
292.514
292.633
292.777
292.948
293.139
293.326
293.488
293.577
293.553
293.446
293.303
293.138
292.965
292.816
292.7
292.599
292.549
292.553
292.519
292.43
0.000330964
0.00182618
0.00789059
0.0317702
0.116434
0.382941
1.10964
2.84045
6.43838
12.9152
22.9403
36.2487
51.9235
68.6169
85.5894
102.289
118.682
134.464
149.876
164.615
178.694
192.292
205.035
217.062
228.376
238.804
248.269
256.875
264.547
270.961
276.35
280.929
284.501
287.321
289.498
290.83
291.712
292.297
292.414
292.422
292.515
292.633
292.777
292.949
293.139
293.326
293.489
293.578
293.554
293.448
293.305
293.14
292.969
292.821
292.705
292.605
292.559
292.567
292.541
292.457
0.000330964
0.00182618
0.00789059
0.0317702
0.116434
0.382941
1.10964
2.84045
6.43838
12.9152
22.9403
36.2487
51.9235
68.6169
85.5894
102.289
118.682
134.464
149.876
164.615
178.694
192.292
205.035
217.062
228.376
238.804
248.269
256.875
264.547
270.961
276.35
280.929
284.501
287.321
289.498
290.83
291.712
292.297
292.415
292.422
292.515
292.634
292.778
292.949
293.139
293.327
293.489
293.578
293.555
293.45
293.307
293.143
292.972
292.826
292.71
292.611
292.57
292.581
292.565
292.486
0.000330964
0.00182618
0.00789059
0.0317702
0.116434
0.382941
1.10964
2.84045
6.43838
12.9152
22.9403
36.2487
51.9235
68.6169
85.5894
102.289
118.682
134.464
149.876
164.615
178.694
192.292
205.035
217.062
228.376
238.804
248.269
256.875
264.547
270.961
276.35
280.929
284.501
287.321
289.498
290.83
291.712
292.297
292.415
292.423
292.516
292.635
292.779
292.95
293.14
293.327
293.489
293.579
293.556
293.451
293.309
293.145
292.976
292.831
292.715
292.616
292.58
292.595
292.59
292.517
0.000330964
0.00182618
0.00789059
0.0317702
0.116434
0.382941
1.10964
2.84045
6.43838
12.9152
22.9403
36.2487
51.9235
68.6169
85.5894
102.289
118.682
134.464
149.876
164.615
178.694
192.292
205.035
217.062
228.376
238.804
248.269
256.875
264.547
270.961
276.35
280.929
284.501
287.321
289.498
290.83
291.712
292.298
292.415
292.423
292.517
292.635
292.779
292.95
293.14
293.327
293.49
293.579
293.556
293.452
293.311
293.148
292.979
292.835
292.719
292.621
292.59
292.61
292.616
292.549
0.000330964
0.00182618
0.00789059
0.0317702
0.116434
0.382941
1.10964
2.84045
6.43838
12.9152
22.9403
36.2487
51.9235
68.6169
85.5894
102.289
118.682
134.464
149.876
164.615
178.694
192.292
205.035
217.062
228.376
238.804
248.269
256.875
264.547
270.961
276.35
280.929
284.501
287.321
289.498
290.83
291.712
292.298
292.415
292.424
292.517
292.636
292.78
292.95
293.14
293.327
293.49
293.58
293.557
293.453
293.312
293.15
292.983
292.84
292.722
292.626
292.6
292.627
292.644
292.582
0.000330964
0.00182618
0.00789059
0.0317702
0.116434
0.382941
1.10964
2.84045
6.43838
12.9152
22.9403
36.2487
51.9235
68.6169
85.5894
102.289
118.682
134.464
149.876
164.615
178.694
192.292
205.035
217.062
228.376
238.804
248.269
256.875
264.547
270.961
276.35
280.929
284.501
287.321
289.498
290.83
291.712
292.298
292.415
292.424
292.518
292.637
292.78
292.951
293.14
293.327
293.49
293.58
293.558
293.455
293.314
293.153
292.986
292.844
292.725
292.63
292.61
292.644
292.673
292.615
0.000330964
0.00182618
0.00789059
0.0317702
0.116434
0.382941
1.10964
2.84045
6.43838
12.9152
22.9403
36.2487
51.9235
68.6169
85.5894
102.289
118.682
134.464
149.876
164.615
178.694
192.292
205.035
217.062
228.376
238.804
248.269
256.875
264.547
270.961
276.35
280.929
284.501
287.321
289.498
290.831
291.712
292.298
292.416
292.424
292.518
292.637
292.78
292.951
293.141
293.327
293.49
293.581
293.559
293.456
293.316
293.155
292.99
292.848
292.728
292.635
292.62
292.663
292.704
292.649
0.000330964
0.00182618
0.00789059
0.0317702
0.116434
0.382941
1.10964
2.84045
6.43838
12.9152
22.9403
36.2487
51.9235
68.6169
85.5894
102.289
118.682
134.464
149.876
164.615
178.694
192.292
205.035
217.062
228.376
238.804
248.269
256.875
264.547
270.961
276.35
280.929
284.501
287.321
289.498
290.831
291.713
292.298
292.416
292.425
292.519
292.638
292.781
292.951
293.141
293.327
293.49
293.581
293.56
293.457
293.317
293.157
292.994
292.852
292.73
292.64
292.629
292.681
292.735
292.684
0.000330964
0.00182618
0.00789059
0.0317702
0.116434
0.382941
1.10964
2.84045
6.43838
12.9152
22.9403
36.2487
51.9235
68.6169
85.5894
102.289
118.682
134.464
149.876
164.615
178.694
192.292
205.035
217.062
228.376
238.804
248.269
256.875
264.547
270.961
276.35
280.929
284.501
287.321
289.499
290.831
291.713
292.298
292.416
292.426
292.52
292.639
292.782
292.952
293.141
293.328
293.491
293.583
293.562
293.459
293.321
293.163
293.005
292.863
292.736
292.653
292.656
292.735
292.837
293.268
0.000330964
0.00182618
0.00789059
0.0317702
0.116434
0.382941
1.10964
2.84045
6.43838
12.9152
22.9403
36.2487
51.9235
68.6169
85.5894
102.289
118.682
134.464
149.876
164.615
178.694
192.292
205.035
217.062
228.376
238.804
248.269
256.875
264.547
270.961
276.35
280.929
284.501
287.321
289.499
290.831
291.713
292.299
292.417
292.427
292.523
292.641
292.783
292.954
293.143
293.329
293.493
293.586
293.566
293.464
293.325
293.171
293.021
292.875
292.749
292.681
292.697
292.797
292.926
293.381
0.000330964
0.00182618
0.00789059
0.0317702
0.116434
0.382941
1.10964
2.84045
6.43838
12.9152
22.9403
36.2487
51.9235
68.6169
85.5894
102.289
118.682
134.464
149.876
164.615
178.694
192.292
205.035
217.062
228.376
238.804
248.269
256.875
264.547
270.961
276.35
280.929
284.501
287.321
289.499
290.831
291.714
292.299
292.418
292.429
292.525
292.643
292.785
292.955
293.144
293.33
293.495
293.589
293.57
293.468
293.331
293.181
293.032
292.884
292.765
292.711
292.74
292.857
293.011
293.493
0.000330964
0.00182618
0.00789059
0.0317702
0.116434
0.382941
1.10964
2.84045
6.43838
12.9152
22.9403
36.2487
51.9235
68.6169
85.5894
102.289
118.682
134.464
149.876
164.615
178.694
192.292
205.035
217.062
228.376
238.804
248.269
256.875
264.547
270.961
276.35
280.929
284.501
287.321
289.499
290.832
291.714
292.3
292.419
292.43
292.527
292.646
292.787
292.957
293.145
293.332
293.496
293.592
293.575
293.473
293.337
293.191
293.038
292.894
292.785
292.74
292.781
292.912
293.08
293.58
0.000330964
0.00182618
0.00789059
0.0317702
0.116434
0.382941
1.10964
2.84045
6.43838
12.9152
22.9403
36.2487
51.9235
68.6169
85.5894
102.289
118.682
134.464
149.876
164.615
178.694
192.292
205.035
217.062
228.376
238.804
248.269
256.875
264.547
270.961
276.35
280.929
284.501
287.321
289.499
290.832
291.715
292.301
292.419
292.432
292.53
292.648
292.789
292.959
293.147
293.333
293.498
293.595
293.578
293.478
293.344
293.199
293.048
292.904
292.803
292.769
292.822
292.964
293.144
293.662
0.000330964
0.00182618
0.00789059
0.0317702
0.116434
0.382941
1.10964
2.84045
6.43838
12.9152
22.9403
36.2487
51.9235
68.6169
85.5894
102.289
118.682
134.464
149.876
164.615
178.694
192.292
205.035
217.062
228.376
238.804
248.269
256.875
264.547
270.961
276.35
280.929
284.501
287.321
289.499
290.832
291.715
292.301
292.42
292.434
292.533
292.651
292.791
292.96
293.148
293.335
293.5
293.598
293.583
293.483
293.349
293.206
293.058
292.917
292.82
292.794
292.857
293.01
293.198
293.727
0.000330964
0.00182618
0.00789059
0.0317702
0.116434
0.382941
1.10964
2.84045
6.43838
12.9152
22.9403
36.2487
51.9235
68.6169
85.5894
102.289
118.682
134.464
149.876
164.615
178.694
192.292
205.035
217.062
228.376
238.804
248.269
256.875
264.547
270.961
276.35
280.929
284.501
287.322
289.5
290.833
291.716
292.302
292.421
292.435
292.535
292.654
292.794
292.962
293.15
293.336
293.503
293.6
293.586
293.487
293.354
293.213
293.068
292.932
292.841
292.821
292.891
293.053
293.252
293.789
0.000330964
0.00182618
0.00789059
0.0317702
0.116434
0.382941
1.10964
2.84045
6.43838
12.9152
22.9403
36.2487
51.9235
68.6169
85.5894
102.289
118.682
134.464
149.876
164.615
178.694
192.292
205.035
217.062
228.376
238.804
248.269
256.875
264.547
270.961
276.35
280.929
284.501
287.322
289.5
290.833
291.717
292.303
292.422
292.437
292.538
292.656
292.796
292.964
293.152
293.338
293.506
293.605
293.591
293.491
293.359
293.218
293.075
292.943
292.858
292.846
292.923
293.089
293.293
293.831
0.000330964
0.00182618
0.00789059
0.0317702
0.116434
0.382941
1.10964
2.84045
6.43838
12.9152
22.9403
36.2487
51.9235
68.6169
85.5894
102.289
118.682
134.464
149.876
164.615
178.694
192.292
205.035
217.062
228.376
238.804
248.269
256.875
264.547
270.961
276.35
280.929
284.501
287.322
289.5
290.834
291.717
292.304
292.423
292.439
292.541
292.659
292.798
292.966
293.153
293.34
293.508
293.608
293.594
293.494
293.364
293.227
293.084
292.952
292.874
292.871
292.952
293.125
293.337
293.88
0.000330964
0.00182618
0.00789059
0.0317702
0.116434
0.382941
1.10964
2.84045
6.43838
12.9152
22.9403