/*--------------------------------*- C++ -*----------------------------------*\
| =========                 |                                                 |
| \\      /  F ield         | OpenFOAM: The Open Source CFD Toolbox           |
|  \\    /   O peration     | Version:  5.x                                   |
|   \\  /    A nd           | Web:      www.OpenFOAM.org                      |
|    \\/     M anipulation  |                                                 |
\*---------------------------------------------------------------------------*/
/*   Windows 32 and 64 bit porting by blueCAPE: http://www.bluecape.com.pt   *\
|  Based on Windows porting (2.0.x v4) by Symscape: http://www.symscape.com   |
\*---------------------------------------------------------------------------*/
FoamFile
{
    version     2.0;
    format      ascii;
    class       surfaceScalarField;
    location    "0.007";
    object      phi;
}
// * * * * * * * * * * * * * * * * * * * * * * * * * * * * * * * * * * * * * //

dimensions      [1 0 -1 0 0 0 0];

internalField   nonuniform List<scalar> 
19740
(
2.11819e-005
-1.18172e-012
9.54013e-005
-1.03384e-012
0.000390348
9.3614e-013
0.00146475
1.1422e-012
0.00500766
1.11466e-012
0.0153491
3.81917e-014
0.0409922
-8.21565e-014
0.0962389
8.97948e-013
0.199139
3.81473e-013
0.363056
2.04281e-014
0.581477
5.18252e-013
0.830338
2.32259e-013
1.08029
1.30784e-013
1.31148
-2.16049e-013
1.51667
-1.61204e-013
1.69481
-5.26246e-014
1.848
-8.40217e-013
1.97673
2.73559e-013
2.08891
-4.6696e-013
2.17807
1.31672e-013
2.24999
2.7689e-013
2.31957
1.37557e-013
2.36725
6.49703e-013
2.39461
-5.85643e-013
2.42438
1.0554e-011
2.45827
1.96647e-011
2.47897
2.55465e-010
2.48044
1.68849e-009
2.47092
6.03905e-009
2.46556
4.60605e-008
2.47874
1.22244e-007
2.49196
5.5504e-007
2.49298
1.40838e-006
2.48867
3.58464e-006
2.4759
7.58355e-006
2.45947
1.15523e-005
2.45082
3.01038e-005
2.44465
3.85418e-005
2.44569
5.92469e-005
2.4593
0.000164967
2.47429
0.000155593
2.48487
0.000273553
2.49231
0.000240653
2.49254
0.000199588
2.49907
0.000258212
2.48899
0.000404133
2.43497
0.000394014
2.28024
0.000465167
2.08625
0.00061438
1.92992
0.000659166
1.81655
0.00061221
1.73067
0.000791813
1.66438
0.000839663
1.61556
0.000893254
1.59638
0.000940854
1.56541
0.0009011
1.5397
0.00101731
1.5507
0.00114371
1.5427
0.00107319
0.00107503
2.04974e-005
-1.78302e-012
9.23187e-005
-1.62004e-012
0.000377735
2.50822e-012
0.00141742
2.71916e-012
0.00484586
1.76126e-012
0.0148531
-4.0945e-013
0.0396676
-2.22045e-013
0.0931292
6.80345e-013
0.192705
7.13651e-013
0.351325
-4.17888e-013
0.562688
1.58229e-012
0.803508
8.06466e-013
1.04538
1.65645e-013
1.2691
-2.76668e-013
1.46767
1.42997e-013
1.64005
-2.88214e-013
1.78829
-9.58345e-013
1.91285
2.7911e-013
2.02141
-5.66436e-013
2.10769
-2.10054e-013
2.17729
2.08389e-013
2.24462
1.07581e-013
2.29076
1.05871e-012
2.31724
-1.19715e-012
2.34604
2.05187e-011
2.37884
3.81358e-011
2.39887
4.99807e-010
2.40029
3.29673e-009
2.39108
1.18349e-008
2.38589
9.00883e-008
2.39865
2.39729e-007
2.41144
1.08699e-006
2.41243
2.76615e-006
2.40826
7.04922e-006
2.3959
1.48974e-005
2.38
2.31195e-005
2.37163
5.77769e-005
2.36565
7.4885e-005
2.36667
0.000121029
2.37983
0.000317264
2.3943
0.000316899
2.40462
0.000631337
2.41136
0.000596967
2.41186
0.00046243
2.41891
0.000630578
2.40805
0.000903144
2.35623
0.000783888
2.20652
0.000920587
2.01847
0.00110057
1.86731
0.00123227
1.75801
0.00138462
1.67481
0.00156799
1.61067
0.00163954
1.56327
0.00164755
1.54469
0.00178617
1.51523
0.00192476
1.49004
0.00202419
1.50035
0.00213148
1.49268
0.00213705
0.00213079
1.98351e-005
-1.91802e-012
8.93356e-005
-1.78346e-012
0.000365529
3.91154e-012
0.00137162
2.77245e-012
0.00468928
1.82121e-012
0.0143732
2.99316e-013
0.0383859
-8.39329e-014
0.09012
9.23706e-014
0.186478
1.16973e-012
0.339973
1.03473e-013
0.544507
1.54854e-012
0.777545
1.35048e-012
1.0116
-2.36255e-013
1.22809
-2.02727e-013
1.42024
1.57874e-013
1.58706
-3.02647e-013
1.7305
-1.36247e-012
1.85105
8.5576e-013
1.95609
-2.01172e-013
2.03959
-2.56906e-013
2.10694
3.42615e-013
2.17209
-2.639e-013
2.21674
1.28464e-012
2.24236
-2.03937e-012
2.27024
3.00109e-011
2.30198
5.53206e-011
2.32136
7.31717e-010
2.32273
4.80523e-009
2.31382
1.73426e-008
2.3088
1.31669e-007
2.32115
3.51771e-007
2.33352
1.59186e-006
2.33448
4.07128e-006
2.33044
1.03771e-005
2.31848
2.20247e-005
2.3031
3.4555e-005
2.29499
8.28497e-005
2.28922
0.000109242
2.2902
0.000179622
2.30295
0.00044571
2.31684
0.000661921
2.32649
0.00115774
2.33161
0.00106112
2.3335
0.000853067
2.34128
0.00116676
2.32933
0.00120145
2.28015
0.00104319
2.1353
0.0013382
1.95302
0.00154685
1.80707
0.00181445
1.70127
0.00213946
1.62062
0.00232028
1.55853
0.00242472
1.51283
0.00247345
1.49488
0.00264338
1.46642
0.00291305
1.44185
0.00295648
1.45162
0.00309497
1.44449
0.00328848
0.00320476
1.91942e-005
-2.36922e-012
8.6449e-005
-1.83009e-012
0.000353718
5.3042e-012
0.0013273
3.65308e-012
0.00453776
3.25606e-012
0.0139088
-2.22045e-015
0.0371455
-2.84661e-013
0.087208
-1.9984e-014
0.180453
8.12239e-013
0.328988
4.97824e-013
0.526912
1.36424e-012
0.752421
1.04983e-012
0.978914
-2.22045e-014
1.18841
7.23865e-014
1.37435
2.19602e-013
1.53577
-7.35634e-013
1.67459
-1.45906e-012
1.79123
2.71561e-013
1.89289
-3.37064e-013
1.97368
6.92779e-014
2.03886
2.42917e-013
2.1019
-2.22378e-013
2.14511
1.47249e-012
2.16991
-2.86526e-012
2.19688
3.87942e-011
2.22759
7.0624e-011
2.24635
9.4854e-010
2.24768
6.19915e-009
2.23906
2.25281e-008
2.2342
1.70501e-007
2.24614
4.57847e-007
2.25812
2.06676e-006
2.25904
5.32076e-006
2.25514
1.35681e-005
2.24357
2.89309e-005
2.22868
4.61656e-005
2.22084
0.000104625
2.21525
0.000142415
2.21621
0.000231543
2.22857
0.000562257
2.24195
0.00109137
2.25135
0.00144857
2.25577
0.00156607
2.25807
0.00151087
2.26553
0.0016278
2.25307
0.00129594
2.2068
0.00124334
2.06715
0.00163034
1.89007
0.00195346
1.74898
0.00247115
1.64629
0.00280134
1.56811
0.00305616
1.50787
0.00326907
1.46374
0.00333419
1.44652
0.00352969
1.41896
0.00390904
1.39535
0.00390218
1.40476
0.00405388
1.39826
0.00443498
0.00428055
1.8574e-005
-2.54907e-012
8.36557e-005
-1.54055e-012
0.000342289
6.17995e-012
0.00128441
4.53015e-012
0.00439113
5.06839e-012
0.0134593
1.50102e-013
0.0359453
-1.96287e-013
0.0843902
-8.60201e-013
0.174622
1.20304e-012
0.318357
-2.68674e-013
0.509887
3.79696e-013
0.728109
8.08242e-013
0.947283
-2.36255e-013
1.15001
7.98028e-013
1.32994
2.24265e-013
1.48615
-8.95506e-013
1.62048
-1.13309e-012
1.73336
4.94271e-013
1.83172
-8.21787e-013
1.90991
2.86438e-013
1.97298
-9.99201e-015
2.03399
-5.15143e-013
2.0758
2.08311e-012
2.09979
-3.63332e-012
2.1259
4.68096e-011
2.15562
8.3851e-011
2.17377
1.14983e-009
2.17505
7.4683e-009
2.16671
2.73678e-008
2.16201
2.06373e-007
2.17357
5.57589e-007
2.18516
2.50974e-006
2.18605
6.51271e-006
2.18227
1.6617e-005
2.17107
3.56341e-005
2.15667
5.78532e-005
2.14908
0.000123514
2.14367
0.000174243
2.1446
0.00027748
2.15659
0.000680471
2.16973
0.00115521
2.1791
0.00132584
2.184
0.00149709
2.18573
0.00164853
2.19297
0.00197584
2.18
0.00207194
2.13614
0.00223545
2.0024
0.00244892
1.82905
0.00271253
1.69255
0.00297691
1.59318
0.00329982
1.51752
0.00369564
1.45874
0.00410046
1.41651
0.00415962
1.40012
0.00434497
1.37282
0.00472169
1.35026
0.00478363
1.3597
0.00498248
1.35278
0.00546971
0.00538062
1.79738e-005
-1.96554e-012
8.09526e-005
-2.4305e-012
0.000331229
6.79456e-012
0.00124291
4.74776e-012
0.00424924
5.79092e-012
0.0130244
2.65565e-013
0.0347838
-7.54952e-013
0.0816633
-1.56586e-012
0.168979
1.55875e-013
0.308071
-2.81997e-013
0.493411
1.13243e-013
0.704582
1.43974e-012
0.916675
-5.83089e-013
1.11285
1.25633e-012
1.28697
-3.58158e-013
1.43813
2.02283e-013
1.56812
-9.0794e-013
1.67735
-6.75016e-014
1.77254
-6.24167e-013
1.8482
4.4853e-014
1.90923
-8.39329e-014
1.96826
-3.95683e-013
2.00873
2.07934e-012
2.03194
-4.25515e-012
2.0572
5.42497e-011
2.08596
9.54692e-011
2.10353
1.33458e-009
2.10477
8.6073e-009
2.0967
3.18459e-008
2.09215
2.39157e-007
2.10333
6.50762e-007
2.11455
2.91962e-006
2.11541
7.64579e-006
2.11176
1.95183e-005
2.10092
4.21572e-005
2.08698
6.9448e-005
2.07964
0.000140236
2.07441
0.000204487
2.07531
0.000319347
2.08691
0.000811404
2.09968
0.00102875
2.10881
0.00119136
2.11354
0.00138043
2.11537
0.00165323
2.1223
0.00215258
2.10949
0.00288716
2.06719
0.00312895
1.93768
0.00319385
1.77007
0.00375126
1.63783
0.00366606
1.54179
0.00372759
1.46874
0.00423496
1.41099
0.00477642
1.37091
0.00486773
1.35526
0.00505909
1.32803
0.00555547
1.30661
0.0057027
1.31645
0.00593095
1.30863
0.00645342
0.00654087
1.73931e-005
-1.22924e-012
7.83368e-005
-3.96305e-012
0.000320526
7.45759e-012
0.00120275
4.63807e-012
0.00411194
6.67644e-012
0.0126036
3.5083e-014
0.0336599
-9.82325e-013
0.0790246
-2.07789e-012
0.163519
-8.57536e-013
0.298116
-4.16112e-013
0.477468
4.8983e-013
0.681815
1.29496e-012
0.887055
-8.03801e-013
1.07689
1.15152e-012
1.24539
-3.47722e-013
1.39166
7.79377e-014
1.51745
-8.72413e-013
1.62315
3.0087e-013
1.71526
-3.68594e-013
1.78848
2.2915e-013
1.84754
-1.02141e-013
1.90466
-3.24407e-013
1.94382
2.39175e-012
1.96629
-4.83613e-012
1.99073
6.06746e-011
2.01856
1.04655e-010
2.03556
1.50226e-009
2.03676
9.61392e-009
2.02895
3.59551e-008
2.02454
2.68798e-007
2.03537
7.37245e-007
2.04622
3.29592e-006
2.04706
8.71844e-006
2.04352
2.22741e-005
2.03303
4.84739e-005
2.01955
8.10123e-005
2.01244
0.000155024
2.00738
0.000232846
2.00825
0.000362296
2.01949
0.000924527
2.0318
0.000953132
2.0406
0.00121728
2.04488
0.00151458
2.04661
0.00193006
2.05284
0.00261336
2.04058
0.00364603
1.99968
0.00401694
1.87361
0.00394226
1.71258
0.00390961
1.5848
0.00399121
1.49213
0.00428687
1.42165
0.00471891
1.36474
0.00526495
1.32648
0.00556762
1.31167
0.00585211
1.28461
0.00641173
1.26445
0.00662114
1.27436
0.00689929
1.26616
0.0075307
0.00773603
1.68311e-005
-1.03295e-012
7.58056e-005
-4.62919e-012
0.000310169
7.5886e-012
0.00116389
4.38183e-012
0.00397908
8.52385e-012
0.0121963
4.44533e-013
0.0325723
-1.43974e-012
0.0764712
-1.70708e-012
0.158236
-9.54348e-013
0.288483
-6.05738e-013
0.46204
1.11111e-012
0.659784
2.54907e-013
0.858392
1.28342e-013
1.0421
9.25482e-013
1.20514
-7.9492e-014
1.34669
5.10703e-015
1.46841
-8.12461e-013
1.5707
2.52687e-013
1.65984
-5.40901e-013
1.73069
4.53859e-013
1.78784
-3.30402e-013
1.84312
-3.28182e-013
1.88101
2.641e-012
1.90275
-5.59186e-012
1.92641
6.67357e-011
1.95334
1.11863e-010
1.96979
1.65353e-009
1.97095
1.04891e-008
1.96339
3.96944e-008
1.95913
2.95298e-007
1.9696
8.17019e-007
1.98011
3.63865e-006
1.98091
9.73085e-006
1.97749
2.48773e-005
1.96734
5.46218e-005
1.95429
9.2293e-005
1.94742
0.000168703
1.94252
0.000259957
1.94336
0.000405453
1.95426
0.000994086
1.96608
0.00105005
1.97431
0.0015948
1.97812
0.00200571
1.98011
0.00265588
1.98606
0.00306042
1.97468
0.00369644
1.93482
0.0043098
1.81197
0.00437543
1.65719
0.00413181
1.53376
0.00439233
1.44392
0.00494
1.37599
0.0052983
1.32041
0.00569202
1.28336
0.00620375
1.26955
0.00661957
1.24275
0.0071738
1.22327
0.00757268
1.23315
0.00800725
1.22509
0.00848078
0.0089168
1.62872e-005
-7.5584e-013
7.33562e-005
-5.15854e-012
0.000300147
8.21831e-012
0.00112628
5.3948e-012
0.0038505
9.78329e-012
0.0118022
7.50511e-014
0.0315198
-2.01172e-012
0.0740002
-1.50235e-012
0.153123
-1.33626e-012
0.279162
-3.73923e-013
0.447111
5.90195e-013
0.638465
6.40377e-013
0.830656
-8.12683e-014
1.00842
4.82281e-013
1.1662
2.5091e-013
1.30318
1.05471e-013
1.42097
-1.37201e-012
1.51995
7.86038e-013
1.60621
-3.81695e-013
1.67477
4.94937e-013
1.73007
-3.55271e-014
1.78357
-2.58238e-013
1.82023
2.54041e-012
1.84127
-6.22613e-012
1.86416
7.17033e-011
1.89022
1.17298e-010
1.90614
1.78837e-009
1.90727
1.12361e-008
1.89995
4.30682e-008
1.89582
3.1871e-007
1.90596
8.90138e-007
1.91613
3.94835e-006
1.91691
1.06823e-005
1.9136
2.73312e-005
1.90377
6.05759e-005
1.89115
0.000103392
1.88449
0.000181265
1.87975
0.000286289
1.88057
0.000449683
1.89114
0.0010186
1.90245
0.00132493
1.91034
0.00198392
1.91415
0.00250197
1.91634
0.00311924
1.92255
0.00339475
1.91132
0.00395495
1.87224
0.00437956
1.75334
0.00466071
1.60362
0.00459857
1.48459
0.00492794
1.39725
0.00550227
1.33144
0.00582745
1.27798
0.00615241
1.24176
0.00680087
1.22884
0.0074128
1.20246
0.00786296
1.18332
0.00843171
1.19288
0.00922946
1.18572
0.00953597
0.00997614
1.57609e-005
-3.4639e-014
7.09859e-005
-5.75895e-012
0.000290449
8.39595e-012
0.00108989
6.24745e-012
0.00372609
1.05285e-011
0.0114209
-4.50751e-013
0.0305013
-2.27596e-012
0.0716091
-2.17693e-012
0.148175
-1.09068e-012
0.270142
-4.62297e-013
0.432663
8.15792e-013
0.617835
8.08242e-013
0.803816
-4.94715e-013
0.97584
3.90799e-014
1.12852
5.96856e-013
1.26107
-1.11022e-014
1.37505
-1.07803e-012
1.47084
7.1787e-013
1.55431
1.35003e-013
1.62065
5.09148e-013
1.67417
3.40394e-013
1.72593
-3.95017e-013
1.76142
2.74758e-012
1.78178
-6.61271e-012
1.80393
7.60605e-011
1.82914
1.21037e-010
1.84455
1.90689e-009
1.84564
1.18597e-008
1.83856
4.60846e-008
1.83457
3.39127e-007
1.84438
9.56725e-007
1.85421
4.22587e-006
1.85497
1.1574e-005
1.85176
2.96306e-005
1.84226
6.63712e-005
1.83004
0.000114125
1.8236
0.000193423
1.81901
0.000311163
1.81981
0.000495442
1.83004
0.000995888
1.84093
0.00166104
1.84864
0.00236566
1.85263
0.00294776
1.85464
0.00340657
1.86093
0.00369933
1.84976
0.00418385
1.81179
0.00443897
1.69685
0.00494227
1.55184
0.00520414
1.43695
0.00556716
1.3522
0.00584017
1.28823
0.00621341
1.23723
0.00670807
1.20177
0.00748663
1.18938
0.00817739
1.16358
0.00864113
1.14509
0.00947644
1.15381
0.010561
1.14735
0.0104943
0.0112386
1.52517e-005
4.34319e-013
6.86922e-005
-6.06004e-012
0.000281064
8.41016e-012
0.00105467
6.49347e-012
0.00360569
1.12417e-011
0.0110519
-1.16085e-012
0.0295158
-1.93268e-012
0.0692953
-2.82396e-012
0.143387
-6.25722e-013
0.261413
-1.00631e-012
0.418683
1.08491e-012
0.597872
-6.9722e-014
0.777843
7.72715e-014
0.944309
3.43725e-013
1.09206
6.21725e-014
1.22032
2.44249e-014
1.33062
-7.4496e-013
1.42331
1.27631e-012
1.50408
6.95e-014
1.56828
4.25882e-013
1.62007
2.29594e-013
1.67017
-4.27658e-013
1.7045
3.06333e-012
1.7242
-7.00418e-012
1.74564
7.98296e-011
1.77004
1.23057e-010
1.78495
2.01026e-009
1.786
1.2367e-008
1.77915
4.87555e-008
1.77529
3.56672e-007
1.78478
1.01695e-006
1.7943
4.47244e-006
1.79503
1.24061e-005
1.79193
3.17786e-005
1.78273
7.20009e-005
1.77091
0.000124533
1.76468
0.000205148
1.76024
0.00033489
1.76101
0.000541259
1.77091
0.000942159
1.78144
0.00199412
1.7889
0.00274893
1.79285
0.00343574
1.79491
0.00370059
1.80081
0.00399434
1.7901
0.00423021
1.75339
0.00433939
1.64202
0.00505513
1.50199
0.00578798
1.39068
0.00618947
1.30867
0.0064593
1.24666
0.00679547
1.1977
0.00737011
1.163
0.00819181
1.15101
0.00897911
1.12595
0.00960805
1.10834
0.010478
1.11617
0.0115092
1.11022
0.0115859
0.0124056
1.47588e-005
1.14042e-012
6.64726e-005
-5.00933e-012
0.000271982
8.6775e-012
0.00102059
6.76437e-012
0.00348918
1.12248e-011
0.0106948
-1.11378e-012
0.028562
-1.58806e-012
0.0670562
-3.40439e-012
0.138754
-3.80584e-013
0.252966
-1.72928e-012
0.405155
1.00986e-012
0.578553
-2.72227e-013
0.752709
4.61853e-014
0.913796
7.1454e-013
1.05677
-6.61693e-014
1.18089
4.78284e-013
1.28763
-7.09433e-013
1.37732
1.09868e-012
1.45548
1.51879e-013
1.51761
3.71925e-013
1.56772
4.49196e-013
1.6162
-4.8872e-013
1.64943
3.14815e-012
1.66849
-7.43228e-012
1.68923
8.28839e-011
1.71285
1.23932e-010
1.72727
2.09904e-009
1.72829
1.27659e-008
1.72166
5.10957e-008
1.71792
3.71495e-007
1.72711
1.07104e-006
1.73632
4.68947e-006
1.73703
1.31798e-005
1.73403
3.37766e-005
1.72513
7.74802e-005
1.71369
0.000134503
1.70766
0.000216884
1.70336
0.000357271
1.70411
0.000583594
1.71369
0.000896507
1.7239
0.00227541
1.73102
0.00315426
1.73448
0.00395896
1.73697
0.00412447
1.74205
0.00434174
1.73192
0.00418092
1.69691
0.00421734
1.5891
0.00501211
1.45367
0.00601551
1.34581
0.00676396
1.26654
0.00710983
1.20652
0.00749465
1.1593
0.00809218
1.12566
0.00888334
1.11408
0.00968169
1.0895
0.010345
1.07263
0.0113018
1.07959
0.0123879
1.07397
0.0128057
0.0134817
1.4282e-005
1.22924e-012
6.43247e-005
-4.65938e-012
0.000263193
8.02647e-012
0.000987615
7.40652e-012
0.00337644
1.09459e-011
0.0103492
-1.89271e-012
0.0276391
-2.30038e-012
0.0648895
-3.45857e-012
0.134271
-1.14886e-012
0.244792
-1.90603e-012
0.392063
1.07425e-012
0.559859
5.91527e-013
0.728387
3.70814e-013
0.88427
4.55191e-013
1.02262
-9.81437e-014
1.14273
-6.12843e-014
1.24602
-5.88418e-013
1.33282
6.38378e-013
1.40845
3.19744e-014
1.46857
3.73701e-013
1.51707
3.5838e-013
1.56398
-4.40981e-013
1.59613
3.06355e-012
1.61458
-7.58615e-012
1.63465
8.56608e-011
1.6575
1.23382e-010
1.67146
2.17399e-009
1.67245
1.30647e-008
1.66603
5.31219e-008
1.66241
3.8376e-007
1.6713
1.11924e-006
1.68022
4.87855e-006
1.6809
1.3896e-005
1.678
3.5629e-005
1.66939
8.28068e-005
1.65831
0.000144051
1.65248
0.000228619
1.64832
0.000378676
1.64905
0.000621386
1.65832
0.000872849
1.6683
0.00243448
1.67513
0.00356049
1.67833
0.00435683
1.68069
0.00461795
1.68534
0.00472524
1.67541
0.00392532
1.64265
0.00429579
1.53943
0.00529374
1.40668
0.00577789
1.30227
0.00698384
1.22581
0.0076711
1.16763
0.00810032
1.12198
0.00869431
1.08945
0.00950644
1.07811
0.0105072
1.05435
0.0111352
1.03814
0.0119785
1.04453
0.0130755
1.03923
0.0139408
0.0148951
1.38205e-005
1.61204e-012
6.22462e-005
-4.73133e-012
0.000254689
8.06555e-012
0.000955703
7.57616e-012
0.00326734
1.05604e-011
0.0100148
-2.4567e-012
0.0267461
-2.38032e-012
0.0627928
-3.37597e-012
0.129932
-1.20526e-012
0.236882
-2.22933e-012
0.379395
8.69971e-013
0.541769
1.39044e-012
0.704851
7.51843e-013
0.855697
2.97096e-013
0.98958
5.1914e-013
1.10581
-6.46594e-013
1.20576
-4.2899e-013
1.28975
3.29958e-013
1.36294
-4.64073e-014
1.42112
3.93463e-013
1.46805
2.86215e-013
1.51344
-5.94635e-013
1.54456
3.00715e-012
1.56241
-7.60991e-012
1.58183
8.81573e-011
1.60394
1.21569e-010
1.61745
2.23621e-009
1.61841
1.32724e-008
1.6122
5.48519e-008
1.6087
3.93644e-007
1.6173
1.16182e-006
1.62593
5.04136e-006
1.62659
1.45563e-005
1.62378
3.73414e-005
1.61545
8.79798e-005
1.60473
0.000153159
1.59908
0.000240448
1.59506
0.000399455
1.59577
0.000652676
1.60474
0.000883797
1.61453
0.00243528
1.62156
0.00358614
1.6249
0.00429924
1.62715
0.00462781
1.63222
0.00473268
1.62171
0.00446043
1.58995
0.00490072
1.49122
0.00588512
1.36144
0.00610059
1.26027
0.00702688
1.18602
0.00805907
1.12996
0.00876502
1.08587
0.00926896
1.05451
0.0100182
1.04306
0.0111959
1.02026
0.0121169
1.00491
0.0127207
1.01082
0.0137491
1.0058
0.0153183
0.0159831
1.33739e-005
1.98597e-012
6.02349e-005
-4.70024e-012
0.00024646
7.73337e-012
0.000924822
7.83285e-012
0.00316176
9.67404e-012
0.00969118
-3.70548e-012
0.0258818
-1.99663e-012
0.0607638
-3.28715e-012
0.125734
-1.52411e-012
0.229228
-2.43272e-012
0.367136
1.50013e-012
0.524263
1.26477e-012
0.682076
4.11227e-013
0.828048
1.69198e-013
0.957605
9.60121e-013
1.07008
-6.61249e-013
1.1668
-9.57456e-013
1.24808
1.63647e-013
1.3189
-2.75557e-013
1.3752
1.84741e-013
1.42061
3.55271e-015
1.46454
-3.99014e-013
1.49465
3.06444e-012
1.51192
-7.82574e-012
1.53072
8.96601e-011
1.55212
1.19138e-010
1.56519
2.28608e-009
1.56611
1.33977e-008
1.5601
5.63042e-008
1.55672
4.01334e-007
1.56504
1.19907e-006
1.57339
5.17965e-006
1.57403
1.51625e-005
1.57131
3.89184e-005
1.56325
9.30038e-005
1.55288
0.000161805
1.54741
0.000252455
1.54352
0.000419784
1.54421
0.000678517
1.55288
0.000931253
1.56246
0.00232138
1.56954
0.00345208
1.57274
0.00421396
1.57496
0.00460477
1.57976
0.00483741
1.56937
0.00495464
1.5387
0.00539608
1.44293
0.00611722
1.31788
0.00666606
1.21978
0.00737846
1.14745
0.00840738
1.09348
0.00925937
1.05097
0.00980922
1.02089
0.0104435
1.00941
0.0117561
0.987072
0.0130565
0.972684
0.0135606
0.978483
0.0145925
0.973423
0.0164669
0.0172278
1.29418e-005
1.84297e-012
5.82886e-005
-4.66205e-012
0.000238496
6.79723e-012
0.000894939
6.97131e-012
0.0030596
9.4893e-012
0.00937804
-4.20997e-012
0.0250455
-2.0135e-012
0.0588004
-3.24807e-012
0.121671
-1.61204e-012
0.221821
-2.66986e-012
0.355273
2.09299e-012
0.507323
1.34648e-012
0.660037
7.90923e-013
0.801292
-2.11831e-013
0.926663
9.46354e-013
1.0355
-9.22373e-013
1.1291
-8.46434e-013
1.20775
-1.30562e-013
1.27629
-1.54987e-013
1.33077
-3.19744e-014
1.37471
1.19682e-013
1.41722
-4.05453e-013
1.44635
3.17413e-012
1.46307
-7.99827e-012
1.48126
9.06548e-011
1.50197
1.15632e-010
1.51461
2.32512e-009
1.51551
1.34495e-008
1.50969
5.74978e-008
1.50642
4.07018e-007
1.51447
1.2313e-006
1.52255
5.29517e-006
1.52317
1.57167e-005
1.52054
4.03657e-005
1.51274
9.78754e-005
1.5027
0.000169993
1.49742
0.000264603
1.49365
0.000440365
1.49431
0.000701574
1.50268
0.00100069
1.51203
0.00214734
1.51902
0.00323488
1.52214
0.0040952
1.52423
0.00463956
1.52865
0.00509801
1.5186
0.00538617
1.4891
0.00579277
1.39606
0.00632217
1.27556
0.00719326
1.18065
0.00780406
1.11042
0.00861251
1.05807
0.00953679
1.01704
0.0103252
0.988399
0.011069
0.976963
0.0124119
0.954788
0.0140172
0.94139
0.0145181
0.947042
0.0156691
0.941808
0.0176494
0.0183013
1.25236e-005
1.98952e-012
5.64052e-005
-4.72067e-012
0.00023079
5.83888e-012
0.000866022
6.46416e-012
0.00296074
9.1136e-012
0.00907501
-4.1247e-012
0.0242363
-1.74794e-012
0.0569004
-3.30846e-012
0.117739
-1.58717e-012
0.214654
-2.62546e-012
0.343793
2.42872e-012
0.49093
1.0969e-012
0.63871
1.30784e-012
0.7754
-1.77636e-013
0.89672
6.35936e-013
1.00204
-1.46194e-012
1.09261
-5.79981e-013
1.16872
-2.79776e-013
1.23505
-2.77334e-013
1.28777
-2.38254e-013
1.33029
3.08642e-013
1.37142
-3.57714e-013
1.39962
3.28781e-012
1.41579
-8.03313e-012
1.43339
9.15537e-011
1.45343
1.11535e-010
1.46567
2.35415e-009
1.46654
1.34363e-008
1.46091
5.84525e-008
1.45774
4.10883e-007
1.46554
1.25881e-006
1.47335
5.38973e-006
1.47395
1.62207e-005
1.47141
4.16911e-005
1.46386
0.000102584
1.45415
0.000177766
1.44903
0.00027692
1.44539
0.000460665
1.44602
0.000726671
1.4541
0.00107943
1.46319
0.00197157
1.46997
0.00302608
1.47299
0.00396219
1.47515
0.00468578
1.47925
0.0053768
1.46955
0.00583727
1.44107
0.00619655
1.35107
0.00666104
1.23439
0.00761704
1.14245
0.00809988
1.07486
0.00867902
1.02403
0.00984601
0.984131
0.011021
0.956933
0.0119317
0.945533
0.0131739
0.92348
0.0146108
0.911174
0.0150976
0.916856
0.0165953
0.910751
0.0190126
0.0188224
1.21189e-005
1.84741e-012
5.45826e-005
-4.33875e-012
0.000223332
4.93561e-012
0.000838039
5.74563e-012
0.00286507
9.11715e-012
0.00878178
-4.07585e-012
0.0234531
-1.46994e-012
0.0550619
-2.84484e-012
0.113935
-1.17417e-012
0.207718
-2.67431e-012
0.332685
1.88027e-012
0.475067
1.28209e-012
0.618072
1.19194e-012
0.750345
2.2693e-013
0.867745
3.82805e-013
0.969665
-9.37916e-013
1.05731
-1.21725e-012
1.13096
-3.4639e-014
1.19514
-3.08642e-013
1.24616
-3.4861e-013
1.2873
2.00284e-013
1.32711
-5.26024e-013
1.35439
3.29514e-012
1.37005
-8.11773e-012
1.38708
9.18381e-011
1.40647
1.06937e-010
1.41831
2.37397e-009
1.41915
1.33672e-008
1.41371
5.91868e-008
1.41064
4.1311e-007
1.41818
1.28191e-006
1.42574
5.46507e-006
1.42633
1.66767e-005
1.42386
4.29007e-005
1.41656
0.000107131
1.40716
0.00018513
1.40221
0.000289355
1.39868
0.000480875
1.3993
0.000754201
1.40709
0.00116938
1.41589
0.00186618
1.42238
0.00286951
1.42515
0.00397922
1.4275
0.0047788
1.43132
0.00551118
1.42209
0.00629319
1.39456
0.0065946
1.30751
0.00700051
1.19439
0.00788123
1.10535
0.00834601
1.04015
0.00903927
0.991389
0.0101977
0.952252
0.0115552
0.926176
0.012475
0.914989
0.0136181
0.893025
0.0148456
0.882282
0.015623
0.888045
0.0176032
0.879873
0.0200625
0.0199631
1.17273e-005
1.8332e-012
5.28189e-005
-3.89822e-012
0.000216116
4.66205e-012
0.00081096
4.34497e-012
0.00277249
8.86402e-012
0.00849802
-4.0945e-012
0.0226953
-1.39533e-012
0.0532827
-2.73737e-012
0.110254
-4.17444e-013
0.201006
-2.57661e-012
0.321935
2.10409e-012
0.459717
1.4504e-012
0.5981
9.76552e-013
0.7261
-3.35287e-013
0.839707
1.21947e-012
0.938333
-1.16085e-012
1.02314
-1.43396e-012
1.09441
-2.16716e-013
1.15652
-3.66374e-013
1.20589
-2.86215e-013
1.24571
2.18936e-013
1.28423
-4.80505e-013
1.31063
3.22742e-012
1.32578
-8.00293e-012
1.34226
9.19558e-011
1.36102
1.02243e-010
1.37248
2.3855e-009
1.3733
1.32487e-008
1.36803
5.97197e-008
1.36506
4.13875e-007
1.37236
1.30091e-006
1.37968
5.52286e-006
1.38024
1.70869e-005
1.37786
4.40011e-005
1.37078
0.000111512
1.36169
0.000192105
1.3569
0.000301898
1.35349
0.000500926
1.35408
0.000782542
1.36161
0.00126818
1.37008
0.0018895
1.3762
0.00287178
1.3787
0.0041345
1.38119
0.00497154
1.38471
0.00555002
1.37581
0.00677017
1.34938
0.00708753
1.26516
0.0074385
1.15574
0.00795287
1.06982
0.00853226
1.0067
0.00969309
0.959776
0.0104985
0.921429
0.0114774
0.896219
0.0124694
0.885439
0.0139834
0.863481
0.0156497
0.85445
0.0165862
0.860025
0.0185961
0.850121
0.0206665
0.0214885
1.13484e-005
1.40155e-012
5.11122e-005
-3.01625e-012
0.000209133
4.22062e-012
0.000784756
3.45146e-012
0.00268291
9.17488e-012
0.00822343
-4.72955e-012
0.021962
-1.50902e-012
0.051561
-3.13083e-012
0.106691
-6.21725e-015
0.194511
-2.47091e-012
0.311532
2.2089e-012
0.444862
1.69997e-012
0.578775
7.70939e-013
0.702638
-2.13163e-013
0.812574
1.27542e-012
0.908014
-1.5814e-012
0.990085
-9.52127e-013
1.05905
-2.78444e-013
1.11915
-4.5608e-013
1.16692
-3.66596e-013
1.20546
2.52021e-013
1.24273
-4.62741e-013
1.26828
3.2101e-012
1.28294
-8.03468e-012
1.29889
9.18681e-011
1.31705
9.72813e-011
1.32814
2.38968e-009
1.32892
1.3089e-008
1.32382
6.00694e-008
1.32095
4.13344e-007
1.32801
1.31612e-006
1.3351
5.56475e-006
1.33564
1.74536e-005
1.33333
4.49994e-005
1.32649
0.000115722
1.31769
0.000198761
1.31306
0.000314333
1.30976
0.000520869
1.31033
0.000810659
1.31761
0.00136713
1.32575
0.00203939
1.33144
0.00308671
1.3338
0.00437604
1.33651
0.00532665
1.33955
0.00570836
1.33141
0.00667949
1.30596
0.00733266
1.22389
0.00779307
1.11856
0.00815456
1.03566
0.00901353
0.974488
0.0100808
0.928844
0.0107748
0.891521
0.011355
0.867585
0.0123805
0.857237
0.0144635
0.834988
0.016768
0.827179
0.0175683
0.832338
0.0196067
0.822157
0.0214546
0.0225822
1.09817e-005
1.4051e-012
4.94607e-005
-2.44782e-012
0.000202375
3.20366e-012
0.000759399
2.97362e-012
0.00259622
8.48388e-012
0.00795772
-4.60076e-012
0.0212523
-1.46105e-012
0.049895
-2.78e-012
0.103244
1.42109e-013
0.188226
-2.32347e-012
0.301466
1.89804e-012
0.430488
2.10942e-012
0.560073
1.19149e-012
0.679935
-2.05613e-013
0.786318
1.06049e-012
0.878674
-1.31495e-012
0.958093
-1.25988e-012
1.02483
-3.17524e-013
1.08299
-4.09894e-013
1.12922
-4.18776e-013
1.16651
3.22853e-013
1.20258
-4.7673e-013
1.2273
3.31557e-012
1.24148
-7.95852e-012
1.25692
9.12161e-011
1.27449
9.21305e-011
1.28522
2.38707e-009
1.28598
1.28947e-008
1.28105
6.02531e-008
1.27827
4.11675e-007
1.2851
1.32783e-006
1.29196
5.59227e-006
1.29248
1.77793e-005
1.29025
4.59009e-005
1.28363
0.000119767
1.27512
0.000205072
1.27063
0.000326705
1.26743
0.000540647
1.26799
0.000838232
1.27504
0.00146556
1.28288
0.00225627
1.28819
0.00342458
1.2907
0.00452421
1.29346
0.0055458
1.29666
0.00592793
1.28848
0.00652773
1.26361
0.00733509
1.1841
0.00799998
1.08244
0.00854965
1.00238
0.00944888
0.943147
0.0102387
0.898682
0.0110729
0.862679
0.011729
0.840276
0.0126731
0.830244
0.0149027
0.807701
0.0172983
0.800663
0.0182922
0.8056
0.0204865
0.794849
0.0227483
0.0237019
1.06269e-005
1.38556e-012
4.78625e-005
-1.6227e-012
0.000195836
2.09255e-012
0.000734861
3.15303e-012
0.00251233
7.85594e-012
0.00770058
-4.65761e-012
0.0205656
-1.15996e-012
0.0482828
-2.6068e-012
0.0999076
1.26121e-013
0.182144
-1.44507e-012
0.291725
1.96554e-012
0.416578
2.11209e-012
0.541976
1.8483e-012
0.657964
-5.27134e-013
0.76091
9.00613e-013
0.850282
-9.76996e-013
0.927135
-1.30118e-012
0.991717
-1.98952e-013
1.048
-3.99236e-013
1.09273
-5.20028e-013
1.12881
3.73923e-013
1.16372
-4.13225e-013
1.18764
3.48077e-012
1.20137
-7.78222e-012
1.2163
9.04667e-011
1.23331
8.69818e-011
1.24369
2.37858e-009
1.24443
1.26719e-008
1.23965
6.02879e-008
1.23696
4.09012e-007
1.24358
1.33633e-006
1.25021
5.60689e-006
1.25072
1.80661e-005
1.24856
4.67134e-005
1.24215
0.000123636
1.23391
0.0002111
1.22957
0.000338907
1.22648
0.000560103
1.22702
0.00086567
1.23385
0.00156102
1.24144
0.00246351
1.24664
0.0036288
1.2492
0.00473441
1.25172
0.00557955
1.25523
0.00616884
1.24674
0.00661077
1.22261
0.00729933
1.14593
0.00826963
1.04743
0.00880881
0.969922
0.00965859
0.912582
0.010524
0.869514
0.0113242
0.834715
0.0123367
0.813796
0.0133168
0.804019
0.0154061
0.78136
0.0172315
0.775284
0.0187658
0.780179
0.0214307
0.768271
0.0239008
0.0250647
1.02835e-005
1.91402e-012
4.6316e-005
-3.55271e-013
0.000189508
1.94067e-012
0.000711116
3.47722e-012
0.00243115
7.87637e-012
0.00745176
-4.5155e-012
0.0199011
-1.2399e-012
0.0467226
-2.76579e-012
0.0966794
2.22933e-013
0.176259
-8.29559e-013
0.282299
2.33946e-012
0.403118
2.52776e-012
0.524464
1.81632e-012
0.636704
-4.44977e-013
0.736324
1.45706e-012
0.822808
-5.42233e-013
0.897177
-1.54188e-012
0.959673
-1.90514e-013
1.01413
-4.11671e-013
1.05742
-4.61853e-013
1.09234
6.21947e-013
1.12612
-4.06342e-013
1.14927
3.37863e-012
1.16255
-7.65388e-012
1.177
8.97995e-011
1.19346
8.18259e-011
1.20351
2.36528e-009
1.20422
1.24255e-008
1.1996
6.01894e-008
1.19699
4.05494e-007
1.2034
1.3419e-006
1.20981
5.61003e-006
1.21031
1.83163e-005
1.20822
4.74437e-005
1.20202
0.000127321
1.19404
0.000216909
1.18984
0.000350759
1.18685
0.000579262
1.18737
0.000893307
1.19399
0.00165285
1.20134
0.0026435
1.20645
0.00382612
1.20898
0.00488533
1.21129
0.00556533
1.21498
0.00630557
1.20651
0.00670167
1.18303
0.00743108
1.109
0.00846028
1.0137
0.00909712
0.938577
0.00986774
0.882952
0.0109352
0.841442
0.0116772
0.807621
0.0126841
0.787856
0.0140702
0.778122
0.0159664
0.755604
0.0172293
0.750875
0.0193952
0.755096
0.0221487
0.74282
0.0245158
0.0262527
9.95122e-006
1.63336e-012
4.48194e-005
5.27578e-013
0.000183385
1.49125e-012
0.000688139
3.37153e-012
0.0023526
7.54063e-012
0.00721098
-4.48441e-012
0.0192581
-1.74261e-012
0.0452129
-3.0278e-012
0.0935555
-1.6076e-013
0.170563
-6.46594e-013
0.273177
2.76668e-012
0.390092
2.11564e-012
0.507517
2.45937e-012
0.616131
-4.81393e-013
0.712532
2.01394e-012
0.796221
-2.92211e-013