/*--------------------------------*- C++ -*----------------------------------*\
| =========                 |                                                 |
| \\      /  F ield         | OpenFOAM: The Open Source CFD Toolbox           |
|  \\    /   O peration     | Version:  5.x                                   |
|   \\  /    A nd           | Web:      www.OpenFOAM.org                      |
|    \\/     M anipulation  |                                                 |
\*---------------------------------------------------------------------------*/
/*   Windows 32 and 64 bit porting by blueCAPE: http://www.bluecape.com.pt   *\
|  Based on Windows porting (2.0.x v4) by Symscape: http://www.symscape.com   |
\*---------------------------------------------------------------------------*/
FoamFile
{
    version     2.0;
    format      ascii;
    class       surfaceScalarField;
    location    "0.007";
    object      phi_0;
}
// * * * * * * * * * * * * * * * * * * * * * * * * * * * * * * * * * * * * * //

dimensions      [1 0 -1 0 0 0 0];

internalField   nonuniform List<scalar> 
19740
(
2.11139e-005
-1.17728e-012
9.5113e-005
-1.0294e-012
0.000389248
9.57456e-013
0.00146093
1.14264e-012
0.00499557
1.11822e-012
0.015317
3.5083e-014
0.0409178
-7.23865e-014
0.0960914
8.84626e-013
0.198885
3.84137e-013
0.362691
2.13163e-014
0.581039
5.21361e-013
0.829887
2.3892e-013
1.07987
1.42109e-013
1.31112
-2.19824e-013
1.51638
-1.59428e-013
1.69457
-5.15143e-014
1.84781
-8.41771e-013
1.97658
2.63567e-013
2.08879
-4.61409e-013
2.17798
1.40332e-013
2.24993
2.79776e-013
2.31952
1.39444e-013
2.36721
6.49591e-013
2.39458
-5.82978e-013
2.42438
1.04979e-011
2.45829
1.93701e-011
2.47897
2.54417e-010
2.48041
1.67726e-009
2.47089
6.01573e-009
2.46557
4.58925e-008
2.47878
1.21881e-007
2.49199
5.54341e-007
2.49298
1.40634e-006
2.48866
3.58619e-006
2.47585
7.58085e-006
2.45944
1.15306e-005
2.4508
3.01252e-005
2.44463
3.86109e-005
2.44572
5.92884e-005
2.45936
0.00016548
2.47435
0.00016122
2.48494
0.000276343
2.49221
0.000237534
2.49256
0.00019115
2.49962
0.000262247
2.48847
0.00040051
2.43465
0.000387846
2.27952
0.00046675
2.08544
0.000617333
1.92937
0.000653651
1.8163
0.000614071
1.73034
0.000785356
1.66352
0.000835614
1.61574
0.000899011
1.59638
0.000937668
1.56373
0.000892908
1.54042
0.00102126
1.55086
0.00114544
1.54016
0.00106766
0.00107469
2.04317e-005
-1.78124e-012
9.20397e-005
-1.58629e-012
0.000376671
2.52598e-012
0.00141372
2.70983e-012
0.00483416
1.78213e-012
0.0148221
-4.13891e-013
0.0395957
-2.15827e-013
0.0929865
6.7546e-013
0.192458
7.19869e-013
0.350971
-4.24105e-013
0.562264
1.59428e-012
0.803072
8.1668e-013
1.04498
1.82965e-013
1.26876
-2.68896e-013
1.46738
1.47216e-013
1.63982
-2.81108e-013
1.7881
-9.55236e-013
1.91271
2.78888e-013
2.0213
-5.73763e-013
2.10761
-2.01172e-013
2.17723
2.22489e-013
2.24458
1.14131e-013
2.29072
1.05949e-012
2.31721
-1.19371e-012
2.34605
2.04243e-011
2.37885
3.75635e-011
2.39887
4.97749e-010
2.40027
3.27479e-009
2.39105
1.17891e-008
2.3859
8.9759e-008
2.39869
2.39015e-007
2.41146
1.08561e-006
2.41243
2.76214e-006
2.40825
7.05218e-006
2.39585
1.4891e-005
2.37997
2.30885e-005
2.37161
5.77951e-005
2.36564
7.50005e-005
2.36669
0.000121157
2.37989
0.000318149
2.39436
0.000324368
2.40467
0.000638893
2.41124
0.00059124
2.41189
0.000440488
2.41938
0.000639005
2.40752
0.000894177
2.35591
0.000777306
2.20583
0.000924613
2.01768
0.00110341
1.86682
0.00122489
1.75766
0.00138327
1.67449
0.00156062
1.60987
0.00163275
1.56342
0.0016515
1.54468
0.00178498
1.51365
0.00191557
1.49072
0.002025
1.50049
0.00212939
1.49023
0.00212894
0.00213214
1.97715e-005
-1.9158e-012
8.90657e-005
-1.71374e-012
0.0003645
3.90932e-012
0.00136804
2.72227e-012
0.00467795
1.84519e-012
0.0143431
2.96652e-013
0.0383163
-7.50511e-014
0.0899819
9.4591e-014
0.186239
1.17417e-012
0.339631
9.37028e-014
0.544096
1.55564e-012
0.777123
1.36025e-012
1.01121
-2.34923e-013
1.22776
-1.95177e-013
1.41997
1.65201e-013
1.58683
-3.0087e-013
1.73032
-1.35958e-012
1.85091
8.57314e-013
1.95599
-1.96065e-013
2.0395
-2.43361e-013
2.10688
3.5616e-013
2.17205
-2.52354e-013
2.2167
1.28253e-012
2.24234
-2.03493e-012
2.27024
2.98722e-011
2.30199
5.44838e-011
2.32135
7.28687e-010
2.32271
4.77316e-009
2.31379
1.72752e-008
2.30881
1.31186e-007
2.32118
3.5072e-007
2.33355
1.58981e-006
2.33448
4.06535e-006
2.33043
1.03811e-005
2.31844
2.20155e-005
2.30307
3.45156e-005
2.29498
8.28717e-005
2.2892
0.000109355
2.29022
0.000179886
2.30301
0.000446418
2.31689
0.000668247
2.32653
0.00116039
2.33153
0.00104812
2.33364
0.000838341
2.34148
0.00117962
2.32882
0.00118083
2.27985
0.00103373
2.13463
0.00134058
1.95225
0.00155565
1.80662
0.00181104
1.70089
0.00213651
1.62031
0.00231349
1.55779
0.00241253
1.51296
0.00246684
1.49488
0.00265076
1.46491
0.00291327
1.4425
0.00294689
1.45176
0.00308079
1.44216
0.00327942
0.00320461
1.91326e-005
-2.37232e-012
8.61878e-005
-1.7768e-012
0.000352722
5.28644e-012
0.00132384
3.62643e-012
0.0045268
3.26006e-012
0.0138797
-9.32587e-015
0.0370782
-2.65121e-013
0.0870744
4.44089e-016
0.180222
8.15792e-013
0.328657
5.15588e-013
0.526515
1.37756e-012
0.752012
1.06759e-012
0.978539
-3.64153e-014
1.18809
8.30447e-014
1.37409
2.32703e-013
1.53556
-7.30527e-013
1.67441
-1.45906e-012
1.7911
2.7045e-013
1.89278
-3.2907e-013
1.9736
8.41549e-014
2.0388
2.58016e-013
2.10187
-2.11942e-013
2.14508
1.46982e-012
2.16988
-2.86171e-012
2.19688
3.86108e-011
2.2276
6.95487e-011
2.24635
9.44609e-010
2.24766
6.15761e-009
2.23903
2.24401e-008
2.2342
1.69872e-007
2.24618
4.56473e-007
2.25814
2.06405e-006
2.25904
5.31298e-006
2.25513
1.35726e-005
2.24352
2.89204e-005
2.22865
4.61113e-005
2.22082
0.000104675
2.21523
0.000142498
2.21623
0.000231754
2.22862
0.000562557
2.242
0.00109567
2.25139
0.0014505
2.25576
0.00155667
2.25829
0.00151047
2.26558
0.00164612
2.25262
0.00126599
2.20651
0.00122856
2.0665
0.00162122
1.88933
0.00198629
1.74855
0.0024706
1.64591
0.00279672
1.56781
0.00305676
1.50717
0.003261
1.4639
0.00331577
1.44652
0.00353247
1.41748
0.00390899
1.39596
0.00389028
1.40493
0.00404884
1.39604
0.00443243
0.00426475
1.85144e-005
-2.56062e-012
8.34029e-005
-1.51434e-012
0.000341325
6.13909e-012
0.00128106
4.51195e-012
0.00438053
5.08793e-012
0.0134312
1.48326e-013
0.0358801
-1.69198e-013
0.0842608
-8.40217e-013
0.174398
1.20037e-012
0.318037
-2.41585e-013
0.509502
3.94795e-013
0.727713
8.26006e-013
0.94692
-2.50022e-013
1.1497
8.05578e-013
1.32969
2.35811e-013
1.48594
-8.85514e-013
1.62031
-1.12821e-012
1.73323
4.99156e-013
1.83162
-8.13793e-013
1.90983
3.01315e-013
1.97292
-1.77636e-015
2.03395
-5.04929e-013
2.07576
2.07478e-012
2.09977
-3.63209e-012
2.1259
4.6591e-011
2.15563
8.25553e-011
2.17376
1.14502e-009
2.17503
7.41801e-009
2.16668
2.72604e-008
2.16201
2.05608e-007
2.1736
5.55905e-007
2.18518
2.50637e-006
2.18605
6.50312e-006
2.18226
1.66217e-005
2.17103
3.56215e-005
2.15664
5.77925e-005
2.14906
0.000123579
2.14366
0.000174312
2.14462
0.000277581
2.15664
0.000680553
2.16978
0.00115697
2.17914
0.00132638
2.18402
0.00149673
2.18601
0.00164648
2.19302
0.00198027
2.17963
0.00206655
2.13588
0.00223579
2.00178
0.00244444
1.82833
0.00270192
1.69212
0.00297879
1.59284
0.00330255
1.51723
0.00369892
1.45804
0.0040912
1.41672
0.00413735
1.40012
0.0043591
1.37135
0.00472717
1.35087
0.00476541
1.35985
0.00497897
1.3506
0.0054816
0.00535274
1.79162e-005
-1.99085e-012
8.0708e-005
-2.3892e-012
0.000330296
6.76037e-012
0.00123967
4.75575e-012
0.00423898
5.81135e-012
0.0129972
2.80664e-013
0.0347207
-7.45182e-013
0.0815382
-1.54277e-012
0.168763
1.57652e-013
0.307761
-2.86438e-013
0.493039
1.15907e-013
0.704199
1.4575e-012
0.916323
-5.86198e-013
1.11255
1.24967e-012
1.28672
-3.51053e-013
1.43793
2.04281e-013
1.56795
-9.10827e-013
1.67722
-6.19504e-014
1.77244
-6.28386e-013
1.84812
4.72955e-014
1.90918
-7.4607e-014
1.96823
-3.91021e-013
2.00869
2.07023e-012
2.03192
-4.25049e-012
2.05721
5.3977e-011
2.08597
9.39769e-011
2.10352
1.32897e-009
2.10475
8.54903e-009
2.09667
3.17201e-008
2.09215
2.38265e-007
2.10337
6.48784e-007
2.11457
2.9156e-006
2.11541
7.63448e-006
2.11175
1.95226e-005
2.10088
4.21446e-005
2.08696
6.93743e-005
2.07962
0.000140331
2.07439
0.000204533
2.07533
0.000319242
2.08696
0.000811644
2.09973
0.00102907
2.10885
0.00119112
2.11356
0.00138335
2.11566
0.00165418
2.12235
0.002164
2.10914
0.00289291
2.06695
0.00313793
1.93709
0.0032081
1.76938
0.00371897
1.63741
0.00365553
1.54146
0.00374125
1.46846
0.00424227
1.41028
0.00476671
1.37121
0.00484156
1.35527
0.00507915
1.32655
0.00556358
1.30723
0.00567735
1.3166
0.00592637
1.30641
0.00645851
0.00652008
1.73373e-005
-1.27898e-012
7.81002e-005
-3.92841e-012
0.000319623
7.43405e-012
0.00119961
4.64162e-012
0.00410201
6.69864e-012
0.0125772
4.39648e-014
0.0335988
-9.78329e-013
0.0789035
-2.06279e-012
0.16331
-8.50431e-013
0.297816
-4.27658e-013
0.477108
4.91607e-013
0.681445
1.29941e-012
0.886715
-7.9492e-013
1.0766
1.15241e-012
1.24514
-3.45501e-013
1.39147
7.90479e-014
1.51729
-8.88178e-013
1.62303
2.99316e-013
1.71517
-3.72591e-013
1.7884
2.26041e-013
1.84749
-9.19265e-014
1.90463
-3.27516e-013
1.94379
2.37854e-012
1.96627
-4.82592e-012
1.99073
6.03687e-011
2.01857
1.02992e-010
2.03555
1.4959e-009
2.03674
9.54842e-009
2.02892
3.5812e-008
2.02455
2.67787e-007
2.0354
7.34987e-007
2.04624
3.29126e-006
2.04706
8.70542e-006
2.04351
2.22779e-005
2.033
4.84591e-005
2.01952
8.09383e-005
2.01243
0.000155126
2.00736
0.000232867
2.00827
0.000362032
2.01954
0.000924729
2.03185
0.00095408
2.04063
0.00121753
2.0449
0.0015185
2.04692
0.00193306
2.05287
0.00260906
2.04026
0.00366826
1.99943
0.00402413
1.87303
0.00394143
1.7119
0.00388666
1.58446
0.00399269
1.49177
0.00429705
1.42136
0.00471694
1.36404
0.00525917
1.32688
0.0055521
1.31168
0.00585705
1.2831
0.00640831
1.26511
0.0065977
1.27452
0.00691777
1.26394
0.00752701
0.00771336
1.67771e-005
-1.05782e-012
7.55766e-005
-4.64251e-012
0.000309295
7.55662e-012
0.00116085
4.38849e-012
0.00396947
8.57181e-012
0.0121708
4.36984e-013
0.0325132
-1.43974e-012
0.076354
-1.70308e-012
0.158033
-9.62341e-013
0.288193
-6.15508e-013
0.461692
1.1382e-012
0.659426
2.6823e-013
0.858063
1.32339e-013
1.04181
9.40581e-013
1.20491
-6.03961e-014
1.3465
1.11022e-014
1.46826
-8.12905e-013
1.57058
2.53353e-013
1.65975
-5.3979e-013
1.73062
4.53193e-013
1.78779
-3.24629e-013
1.84309
-3.35287e-013
1.88098
2.62523e-012
1.90273
-5.58786e-012
1.92641
6.64087e-011
1.95335
1.10049e-010
1.96978
1.64649e-009
1.97093
1.04171e-008
1.96337
3.95351e-008
1.95913
2.94178e-007
1.96963
8.14495e-007
1.98013
3.63334e-006
1.98092
9.71618e-006
1.97748
2.48802e-005
1.96731
5.4605e-005
1.95427
9.22199e-005
1.9474
0.000168815
1.9425
0.0002599
1.94338
0.0004052
1.95431
0.000993849
1.96613
0.00105149
1.97434
0.00159381
1.97814
0.00201029
1.98038
0.00266954
1.98609
0.00305518
1.97432
0.00371078
1.93456
0.00430302
1.81141
0.00436836
1.65654
0.00414266
1.53345
0.00439645
1.44357
0.00493783
1.3757
0.00528302
1.31973
0.00568825
1.28379
0.00621195
1.26957
0.00662401
1.24125
0.00716213
1.224
0.00754665
1.23331
0.00803012
1.2229
0.00847464
0.0089038
1.6235e-005
-7.82485e-013
7.31345e-005
-5.10525e-012
0.000299301
8.19522e-012
0.00112334
5.40989e-012
0.00384121
9.81348e-012
0.0117776
5.86198e-014
0.0314626
-2.04148e-012
0.0738868
-1.50813e-012
0.152927
-1.34204e-012
0.278881
-3.73923e-013
0.446774
6.15064e-013
0.638119
6.51035e-013
0.830337
-5.37348e-014
1.00815
4.93383e-013
1.16598
2.64233e-013
1.303
1.14575e-013
1.42082
-1.37246e-012
1.51983
7.87592e-013
1.60612
-3.79252e-013
1.6747
4.98268e-013
1.73002
-3.53051e-014
1.78353
-2.60236e-013
1.8202
2.52487e-012
1.84125
-6.21414e-012
1.86416
7.13578e-011
1.89023
1.15371e-010
1.90613
1.78069e-009
1.90725
1.11584e-008
1.89993
4.28939e-008
1.89583
3.17491e-007
1.90599
8.87363e-007
1.91614
3.94241e-006
1.91691
1.06661e-005
1.91359
2.73329e-005
1.90374
6.05564e-005
1.89112
0.000103326
1.88448
0.000181369
1.87974
0.00028618
1.88059
0.000449422
1.89118
0.00101814
1.90249
0.00132676
1.91037
0.00197808
1.91417
0.00251033
1.91656
0.00312771
1.92259
0.00339107
1.91091
0.00396102
1.87199
0.00437555
1.75279
0.00465567
1.60299
0.0046126
1.48427
0.00492934
1.39691
0.00549621
1.33117
0.00581539
1.27731
0.0061546
1.24217
0.00682966
1.22886
0.00742088
1.20097
0.00784365
1.18412
0.0084069
1.19301
0.00924949
1.18358
0.00950629
0.00997256
1.57104e-005
-7.37188e-014
7.07714e-005
-5.7323e-012
0.00028963
8.3924e-012
0.00108704
6.24212e-012
0.00371709
1.05338e-011
0.011397
-4.82281e-013
0.030446
-2.30083e-012
0.0714994
-2.15561e-012
0.147985
-1.11244e-012
0.26987
-4.63629e-013
0.432337
8.33111e-013
0.6175
8.13127e-013
0.803507
-4.76952e-013
0.975576
5.24025e-014
1.1283
5.98188e-013
1.26089
-2.66454e-015
1.37491
-1.08069e-012
1.47073
7.14095e-013
1.55422
1.34115e-013
1.62058
5.11591e-013
1.67412
3.36176e-013
1.7259
-3.99236e-013
1.76139
2.7256e-012
1.78175
-6.60716e-012
1.80393
7.56795e-011
1.82915
1.18993e-010
1.84454
1.89862e-009
1.84562
1.1777e-008
1.83853
4.58965e-008
1.83457
3.37816e-007
1.84441
9.53715e-007
1.85423
4.21931e-006
1.85497
1.15562e-005
1.85175
2.96307e-005
1.84222
6.63497e-005
1.83002
0.000114062
1.82359
0.000193526
1.819
0.000311011
1.81982
0.000495092
1.83009
0.000996005
1.84097
0.00166106
1.84867
0.00236401
1.8526
0.00294804
1.85483
0.00340788
1.86097
0.00369697
1.84934
0.00418513
1.81155
0.00444648
1.69632
0.00494366
1.55124
0.00520382
1.43663
0.00557368
1.35187
0.00582742
1.28799
0.00620802
1.23662
0.00671745
1.20213
0.00751195
1.1894
0.00817624
1.16214
0.0086107
1.14596
0.00944865
1.15392
0.0105817
1.14534
0.0104635
0.0112419
1.52027e-005
3.6593e-013
6.84846e-005
-6.03428e-012
0.000280272
8.45723e-012
0.00105192
6.49081e-012
0.00359698
1.12648e-011
0.0110288
-1.20615e-012
0.0294622
-1.94333e-012
0.0691891
-2.84084e-012
0.143204
-6.51923e-013
0.26115
-9.95648e-013
0.418368
1.09202e-012
0.597547
-5.72875e-014
0.777544
8.88178e-014
0.944053
3.4639e-013
1.09184
6.75016e-014
1.22015
2.26485e-014
1.33048
-7.43849e-013
1.4232
1.27542e-012
1.504
7.12763e-014
1.56822
4.1922e-013
1.62003
2.2049e-013
1.67014
-4.22329e-013
1.70447
3.04845e-012
1.72418
-6.98663e-012
1.74564
7.94309e-011
1.77005
1.2093e-010
1.78494
2.00149e-009
1.78598
1.228e-008
1.77913
4.85546e-008
1.77529
3.5528e-007
1.78481
1.01372e-006
1.79432
4.46526e-006
1.79503
1.23868e-005
1.79192
3.17768e-005
1.7827
7.19769e-005
1.77089
0.000124476
1.76466
0.000205245
1.76022
0.000334716
1.76102
0.000540802
1.77096
0.000942936
1.78148
0.00199139
1.78893
0.00275469
1.79281
0.00342935
1.79509
0.00369272
1.80086
0.00400167
1.78971
0.00421524
1.75316
0.00435158
1.6415
0.00507355
1.50141
0.00578371
1.39034
0.00618627
1.30835
0.00644115
1.24642
0.00679894
1.19714
0.00737959
1.16329
0.00819912
1.15102
0.00896575
1.12457
0.00957933
1.10927
0.0104834
1.11627
0.0115298
1.10833
0.0115469
0.0124247
1.47115e-005
1.09157e-012
6.62718e-005
-5.01021e-012
0.000271216
8.71037e-012
0.00101793
6.77858e-012
0.00348076
1.1239e-011
0.0106724
-1.15463e-012
0.0285102
-1.58895e-012
0.0669534
-3.37996e-012
0.138576
-3.87246e-013
0.252711
-1.69997e-012
0.404849
1.01563e-012
0.578239
-2.72671e-013
0.75242
4.79616e-014
0.913549
7.21645e-013
1.05657
-6.12843e-014
1.18073
4.72067e-013
1.28749
-7.10543e-013
1.37722
1.09601e-012
1.4554
1.52767e-013
1.51755
3.67706e-013
1.56768
4.48308e-013
1.61617
-4.74065e-013
1.6494
3.13927e-012
1.66847
-7.41962e-012
1.68923
8.246e-011
1.71286
1.21745e-010
1.72727
2.08979e-009
1.72827
1.26753e-008
1.72164
5.08832e-008
1.71793
3.70029e-007
1.72714
1.0676e-006
1.73634
4.68169e-006
1.73703
1.3159e-005
1.73402
3.37726e-005
1.7251
7.74534e-005
1.71366
0.000134449
1.70764
0.000216983
1.70335
0.000357071
1.70412
0.000583096
1.71373
0.000897469
1.72394
0.00227268
1.73104
0.00316118
1.73449
0.0039546
1.73716
0.00411104
1.74209
0.00436608
1.7316
0.004139
1.69669
0.00420656
1.5886
0.00502399
1.45311
0.00605864
1.34545
0.00675293
1.26629
0.00709867
1.20629
0.00750772
1.15875
0.0081022
1.12591
0.00888257
1.11409
0.00967758
1.08823
0.0103301
1.07356
0.0113053
1.07968
0.012397
1.07224
0.0127813
0.0134792
1.42361e-005
1.17772e-012
6.41304e-005
-4.6505e-012
0.000262452
8.07354e-012
0.000985037
7.39675e-012
0.00336829
1.09761e-011
0.0103275
-1.91669e-012
0.027589
-2.28173e-012
0.06479
-3.44436e-012
0.134099
-1.13953e-012
0.244546
-1.88782e-012
0.391768
1.09157e-012
0.559555
5.79536e-013
0.728108
3.69926e-013
0.88403
4.72067e-013
1.02243
-9.76996e-014
1.14257
-6.57252e-014
1.24589
-5.86198e-013
1.33272
6.33937e-013
1.40838
3.06422e-014
1.46851
3.62155e-013
1.51703
3.59268e-013
1.56395
-4.33653e-013
1.5961
3.04778e-012
1.61456
-7.57061e-012
1.63465
8.52285e-011
1.65751
1.21148e-010
1.67145
2.16433e-009
1.67243
1.29711e-008
1.66601
5.28987e-008
1.66242
3.82228e-007
1.67133
1.1156e-006
1.68023
4.87018e-006
1.6809
1.38738e-005
1.67799
3.56227e-005
1.66935
8.27773e-005
1.65829
0.000143997
1.65247
0.000228723
1.64831
0.000378465
1.64906
0.000620823
1.65836
0.000873445
1.66834
0.00243177
1.67516
0.00356092
1.67834
0.00435649
1.68095
0.0046203
1.68533
0.00473406
1.67522
0.00388668
1.64245
0.00427019
1.53895
0.00527068
1.40613
0.00584405
1.30193
0.00700194
1.2256
0.00766507
1.16741
0.00810107
1.12143
0.0086962
1.08969
0.0095122
1.07811
0.0105078
1.05317
0.0111255
1.03904
0.0119818
1.04461
0.0130764
1.0376
0.0139367
0.0148729
1.37761e-005
1.57296e-012
6.20582e-005
-4.77662e-012
0.000253972
8.15437e-012
0.000953208
7.61613e-012
0.00325945
1.05596e-011
0.00999384
-2.50111e-012
0.0266976
-2.34657e-012
0.0626965
-3.33156e-012
0.129766
-1.20348e-012
0.236644
-2.23999e-012
0.379109
8.83738e-013
0.541475
1.39089e-012
0.704581
7.4607e-013
0.855465
3.13083e-013
0.989389
5.1914e-013
1.10565
-6.51923e-013
1.20563
-4.32987e-013
1.28965
3.15969e-013
1.36287
-5.01821e-014
1.42106
3.81917e-013
1.46801
2.84217e-013
1.51341
-5.89973e-013
1.54453
2.99116e-012
1.56239
-7.58638e-012
1.58183
8.77078e-011
1.60395
1.19304e-010
1.61745
2.22616e-009
1.61839
1.31764e-008
1.61218
5.46191e-008
1.6087
3.92054e-007
1.61733
1.15801e-006
1.62594
5.03242e-006
1.62659
1.45327e-005
1.62377
3.73326e-005
1.61541
8.79469e-005
1.60471
0.000153107
1.59907
0.000240561
1.59505
0.000399221
1.59578
0.000652088
1.60477
0.00088383
1.61457
0.00243186
1.62159
0.00358243
1.62492
0.00430316
1.62742
0.00462423
1.63215
0.00472236
1.62164
0.00444969
1.58977
0.00489324
1.49077
0.00587273
1.36092
0.00610461
1.2599
0.00705255
1.1859
0.00806935
1.12975
0.00875537
1.08534
0.00925518
1.05473
0.0100265
1.04305
0.0111981
1.01913
0.0121015
1.00578
0.0127255
1.0109
0.0137501
1.00419
0.0153432
0.0159392
1.3331e-005
1.96376e-012
6.0053e-005
-4.74998e-012
0.000245765
7.7609e-012
0.000922408
7.87548e-012
0.00315413
9.68381e-012
0.00967092
-3.71436e-012
0.0258349
-1.95133e-012
0.0606707
-3.26139e-012
0.125573
-1.52944e-012
0.228998
-2.42828e-012
0.366859
1.51745e-012
0.523978
1.28431e-012
0.681815
4.04565e-013
0.827823
1.60316e-013
0.957419
9.76552e-013
1.06993
-6.60805e-013
1.16668
-9.62785e-013
1.24798
1.61426e-013
1.31883
-2.81775e-013
1.37514
1.80078e-013
1.42057
3.33067e-015
1.46451
-4.00346e-013
1.49462
3.03912e-012
1.51191
-7.81442e-012
1.53072
8.91942e-011
1.55212
1.16849e-010
1.56518
2.27571e-009
1.5661
1.32998e-008
1.56009
5.60628e-008
1.55672
3.99693e-007
1.56507
1.1951e-006
1.5734
5.17015e-006
1.57403
1.51375e-005
1.5713
3.89069e-005
1.56322
9.29676e-005
1.55286
0.000161751
1.5474
0.000252578
1.54351
0.000419538
1.54422
0.000677893
1.55291
0.000930779
1.5625
0.00231744
1.56957
0.00344776
1.57274
0.00421484
1.57521
0.0046042
1.57969
0.00483475
1.56931
0.00495101
1.53852
0.00539133
1.44249
0.00611467
1.31736
0.00665405
1.2194
0.00738834
1.14735
0.00842171
1.09327
0.00925613
1.05049
0.00979277
1.02109
0.0104429
1.0094
0.0117527
0.986028
0.0130332
0.973521
0.0135567
0.978563
0.0145878
0.971763
0.016471
0.017193
1.29003e-005
1.83853e-012
5.81125e-005
-4.73666e-012
0.000237824
6.80522e-012
0.000892603
6.94556e-012
0.00305221
9.50262e-012
0.00935843
-4.21174e-012
0.0250001
-1.99396e-012
0.0587103
-3.19123e-012
0.121515
-1.6156e-012
0.221598
-2.68585e-012
0.355005
2.11209e-012
0.507048
1.35136e-012
0.659784
7.69607e-013
0.801074
-2.13607e-013
0.926483
9.38361e-013
1.03536
-9.26814e-013
1.12898
-8.4599e-013
1.20766
-1.25233e-013
1.27622
-1.64535e-013
1.33071
-3.57492e-014
1.37467
1.23457e-013
1.41719
-4.03677e-013
1.44633
3.15392e-012
1.46305
-7.97962e-012
1.48126
9.01796e-011
1.50197
1.1335e-010
1.51461
2.31448e-009
1.51549
1.33502e-008
1.50968
5.72487e-008
1.50642
4.05333e-007
1.5145
1.22717e-006
1.52256
5.28514e-006
1.52317
1.56903e-005
1.52053
4.03515e-005
1.51271
9.78352e-005
1.50268
0.000169938
1.4974
0.000264739
1.49364
0.000440098
1.49433
0.000700927
1.50271
0.00100006
1.51207
0.00214382
1.51905
0.00323399
1.52213
0.00409326
1.52447
0.00463947
1.52859
0.00510239
1.51853
0.00537687
1.48893
0.00578926
1.39564
0.00631869
1.27508
0.00718309
1.18029
0.00779828
1.11029
0.00863076
1.05787
0.00954165
1.0166
0.0103056
0.98859
0.0110407
0.976934
0.0124002
0.953836
0.01399
0.942197
0.014504
0.947124
0.0156818
0.94015
0.0176484
0.0182852
1.24834e-005
1.97531e-012
5.62348e-005
-4.76685e-012
0.00023014
5.81046e-012
0.000863761
6.4615e-012
0.00295359
9.13225e-012
0.00905604
-4.14602e-012
0.0241923
-1.70175e-012
0.0568132
-3.28715e-012
0.117589
-1.5854e-012
0.214438
-2.63434e-012
0.343534
2.41807e-012
0.490664
1.08846e-012
0.638465
1.30118e-012
0.77519
-1.78524e-013
0.896546
6.29718e-013
1.0019
-1.46327e-012
1.0925
-5.76872e-013
1.16863
-2.77112e-013
1.23498
-2.73115e-013
1.28771
-2.35367e-013
1.33025
3.1064e-013
1.3714
-3.54605e-013
1.39959
3.27893e-012
1.41578
-8.00493e-012
1.4334
9.10885e-011
1.45344
1.09255e-010
1.46567
2.34326e-009
1.46652
1.3336e-008
1.46089
5.81966e-008
1.45775
4.0916e-007
1.46556
1.25454e-006
1.47337
5.37918e-006
1.47395
1.6193e-005
1.4714
4.16741e-005
1.46383
0.000102539
1.45413
0.000177711
1.44902
0.000277061
1.44538
0.000460421
1.44604
0.000725946
1.45413
0.00107873
1.46323
0.00196903
1.47001
0.00302559
1.47298
0.0039599
1.4754
0.00468277
1.47916
0.00538523
1.46949
0.00582509
1.44091
0.0061959
1.35067
0.0066615
1.23392
0.0076065
1.14213
0.00809424
1.07466
0.00869629
1.02383
0.00983054
0.98371
0.0109888
0.957136
0.0118964
0.945484
0.0131937
0.922616
0.0146189
0.911989
0.0150726
0.916942
0.016603
0.909124
0.0190232
0.0188105
1.20801e-005
1.81632e-012
5.44177e-005
-4.32987e-012
0.000222703
4.97025e-012
0.000835851
5.72875e-012
0.00285815
9.17222e-012
0.00876342
-4.07852e-012
0.0234106
-1.45395e-012
0.0549775
-2.83062e-012
0.113789
-1.18749e-012
0.207509
-2.68763e-012
0.332434
1.89004e-012
0.474809
1.3034e-012
0.617835
1.18261e-012
0.750142
2.06501e-013
0.867577
3.73035e-013
0.969529
-9.32587e-013
1.0572
-1.21902e-012
1.13087
-2.84217e-014
1.19508
-3.07754e-013
1.2461
-3.37064e-013
1.28727
1.96954e-013
1.32709
-5.24913e-013
1.35437
3.27982e-012
1.37003
-8.08287e-012
1.38708
9.13432e-011
1.40648
1.04678e-010
1.41831
2.36289e-009
1.41914
1.32663e-008
1.41369
5.8925e-008
1.41064
4.11355e-007
1.4182
1.27751e-006
1.42576
5.45402e-006
1.42633
1.66477e-005
1.42386
4.28806e-005
1.41653
0.000107082
1.40714
0.000185072
1.4022
0.00028951
1.39867
0.000480633
1.39931
0.00075351
1.40712
0.00116829
1.41592
0.00186316
1.42241
0.00286834
1.42515
0.0039752
1.42775
0.00477593
1.43121
0.00552622
1.42203
0.00627914
1.39441
0.00658764
1.30711
0.0070117
1.19394
0.00786519
1.10507
0.00833496
1.0399
0.00904259
0.991181
0.0101813
0.951876
0.0115378
0.926433
0.012464
0.914922
0.0136763
0.892172
0.0148536
0.883117
0.0155617
0.888142
0.0176034
0.878276
0.0200791
0.019914
1.16897e-005
1.79678e-012
5.26594e-005
-3.94884e-012
0.000215507
4.68425e-012
0.000808843
4.38938e-012
0.0027658
8.89866e-012
0.00848025
-4.08829e-012
0.0226542
-1.39355e-012
0.053201
-2.72848e-012
0.110113
-4.07674e-013
0.200804
-2.5846e-012
0.321692
2.09965e-012
0.459467
1.47526e-012
0.597871
9.47242e-013
0.725903
-3.52163e-013
0.839544
1.19948e-012
0.938201
-1.1493e-012
1.02304
-1.44329e-012
1.09433
-2.08278e-013
1.15646
-3.62377e-013
1.20584
-2.76001e-013
1.24568
2.19824e-013
1.28421
-4.78284e-013
1.31061
3.20965e-012
1.32576
-7.98028e-012
1.34226
9.14713e-011
1.36103
1.00009e-010
1.37248
2.37425e-009
1.37328
1.31476e-008
1.36801
5.94528e-008
1.36506
4.12093e-007
1.37238
1.2964e-006
1.37969
5.51134e-006
1.38024
1.70566e-005
1.37785
4.39781e-005
1.37076
0.000111458
1.36167
0.000192048
1.35689
0.000302059
1.35348
0.000500682
1.35409
0.000781941
1.36164
0.001267
1.37012
0.00188531
1.37623
0.00286845
1.3787
0.0041337
1.38146
0.00496771
1.38455
0.0055456
1.37575
0.00678251
1.34923
0.00709144
1.26477
0.00744839
1.1553
0.00789463
1.06957
0.00851269
1.00646
0.009683
0.959571
0.0105101
0.921082
0.0114881
0.896541
0.0124735
0.88532
0.0140228
0.862669
0.0155909
0.855332
0.0165353
0.860131
0.0186271
0.848504
0.0206538
0.0214446
1.1312e-005
1.40599e-012
5.09578e-005
-3.05356e-012
0.000208544
4.2224e-012
0.000782708
3.49498e-012
0.00267643
9.20064e-012
0.00820624
-4.72333e-012
0.0219222
-1.50635e-012
0.051482
-3.11484e-012
0.106555
7.10543e-015
0.194315
-2.43539e-012
0.311298
2.21245e-012
0.444621
1.70886e-012
0.578553
7.3852e-013
0.702448
-1.98508e-013
0.812416
1.27365e-012
0.907886
-1.58806e-012
0.989982
-9.62341e-013
1.05897
-2.75335e-013
1.11909
-4.60965e-013
1.16688
-3.67484e-013
1.20542
2.60014e-013
1.24271
-4.65628e-013
1.26826
3.18834e-012
1.28292
-8.02758e-012
1.29889
9.13798e-011
1.31705
9.51039e-011
1.32813
2.37831e-009
1.32891
1.29881e-008
1.32381
5.97981e-008
1.32095
4.11541e-007
1.32803
1.31149e-006
1.33511
5.55277e-006
1.33564
1.74221e-005
1.33333
4.49732e-005
1.32647
0.000115663
1.31768
0.000198703
1.31305
0.000314498
1.30975
0.000520641
1.31034
0.000810136
1.31764
0.00136559
1.32578
0.00203456
1.33147
0.00308551
1.3338
0.00437242
1.33676
0.00533589
1.33941
0.00568991
1.33135
0.00670181
1.30582
0.00732855
1.22349
0.00776918
1.11813
0.00812184
1.03542
0.00899322
0.974256
0.0100635
0.928644
0.010782
0.891179
0.0113584
0.867933
0.0123975
0.85703
0.0144719
0.834387
0.0166658
0.828119
0.0175726
0.832441
0.0196698
0.820554
0.0213816
0.0225645
1.09465e-005
1.42109e-012
4.93113e-005
-2.52154e-012
0.000201805
3.19478e-012
0.000757417
2.97895e-012
0.00258995
8.56115e-012
0.00794108
-4.59277e-012
0.0212138
-1.46194e-012
0.0498185
-2.76401e-012
0.103112
1.78524e-013
0.188037
-2.29861e-012
0.301239
1.92468e-012
0.430254
2.11031e-012
0.559858
1.16929e-012
0.67975
-2.11831e-013
0.786166
1.06137e-012
0.87855
-1.29985e-012
0.957994
-1.247e-012
1.02476
-3.31291e-013
1.08293
-4.13891e-013
1.12917
-4.21885e-013
1.16647
3.27516e-013
1.20256
-4.81837e-013
1.22728
3.29869e-012
1.24147
-7.92899e-012
1.25692
9.0701e-011
1.2745
8.99696e-011
1.28522
2.37559e-009
1.28597
1.27942e-008
1.28103
5.99781e-008
1.27827
4.09855e-007
1.28512
1.32311e-006
1.29197
5.57986e-006
1.29248
1.77466e-005
1.29025
4.58716e-005
1.28361
0.000119703
1.2751
0.000205012
1.27062
0.000326884
1.26743
0.000540406
1.268
0.000837819
1.27507
0.00146368
1.28291
0.0022525
1.28821
0.0034212
1.29072
0.00452887
1.29368
0.00555427
1.29657
0.00591948
1.28842
0.00653081
1.26347
0.00731414
1.18374
0.00796951
1.08203
0.00855219
1.00215
0.00944136
0.942921
0.0102308
0.898485
0.0110612
0.862364
0.0117005
0.840607
0.0126741
0.829947
0.014925
0.807404
0.0172168
0.801627
0.0182904
0.805701
0.0205223
0.793348
0.0226832
0.0236948
1.05928e-005
1.40599e-012
4.77179e-005
-1.65912e-012
0.000195285
2.10409e-012
0.000732943
3.1557e-012
0.00250626
7.85239e-012
0.00768448
-4.68869e-012
0.0205283
-1.1644e-012
0.0482087
-2.55085e-012
0.0997798
1.72307e-013
0.181961
-1.43174e-012
0.291505
2.03393e-012
0.416352
2.10942e-012
0.541768
1.84652e-012
0.657786
-5.24913e-013
0.760763
8.91287e-013
0.850162
-9.84102e-013
0.927039
-1.30829e-012
0.991643
-2.05613e-013
1.04794
-3.95239e-013
1.09269
-5.28022e-013
1.12878
3.86358e-013
1.1637
-4.14113e-013
1.18762
3.46079e-012
1.20136
-7.75247e-012
1.21631
8.99802e-011
1.23331
8.48528e-011
1.24369
2.36703e-009
1.24442
1.2572e-008
1.23964
6.00099e-008
1.23697
4.07181e-007
1.2436
1.33152e-006
1.25022
5.59407e-006
1.25072
1.80323e-005
1.24855
4.66809e-005
1.24213
0.000123566
1.2339
0.000211039
1.22956
0.000339091
1.22647
0.000559849
1.22703
0.000865358
1.23388
0.00155916
1.24147
0.00246004
1.24666
0.00362757
1.24921
0.00474055
1.25192
0.00557923
1.25517
0.00616655
1.24668
0.00660141
1.22247
0.00728203
1.14559
0.00824827
1.04703
0.00880751
0.9697
0.00966668
0.912363
0.0105185
0.869308
0.0113074
0.834462
0.0122964
0.814138
0.0132845
0.803646
0.0154619
0.78124
0.0172154
0.776253
0.0187135
0.780288
0.0213943
0.766872
0.0238983
0.0250571
1.02505e-005
1.94689e-012
4.61761e-005
-3.93463e-013
0.000188974
1.96998e-012
0.00070926
3.48965e-012
0.00242528
7.91722e-012
0.00743618
-4.49063e-012
0.019865
-1.22835e-012
0.046651
-2.75779e-012
0.0965557
2.39808e-013
0.176081
-8.25118e-013
0.282086
2.34923e-012
0.402899
2.5242e-012
0.524262
1.84386e-012
0.636532
-4.583e-013
0.736181
1.46727e-012
0.822692
-5.55556e-013
0.897085
-1.55964e-012
0.959601
-1.91847e-013
1.01408
-4.13447e-013
1.05738
-4.59632e-013
1.09231
6.24167e-013
1.1261
-4.06786e-013
1.14925
3.35021e-012
1.16254
-7.63833e-012
1.177
8.92957e-011
1.19346
7.97689e-011
1.2035
2.35369e-009
1.20421
1.23265e-008
1.19958
5.9909e-008
1.197
4.03654e-007
1.20341
1.33701e-006
1.20982
5.59681e-006
1.21031
1.82814e-005
1.20821
4.74079e-005
1.20199
0.000127246
1.19403
0.000216849
1.18984
0.000350945
1.18684
0.000579003
1.18738
0.000893079
1.19401
0.00165102
1.20137
0.00264004
1.20647
0.00382571
1.20897
0.00488958
1.21149
0.00556251
1.21491
0.00630354
1.20645
0.00668877
1.18289
0.007418
1.10867
0.00844942
1.01331
0.00909071
0.938349
0.00986973
0.88274
0.0109259
0.841221
0.0116433
0.807418
0.0126533
0.788261
0.0140442
0.777701
0.0160094
0.755483
0.0172203
0.751828
0.0193753
0.755201
0.0221404
0.741452
0.0245159
0.0262204
9.91929e-006
1.66711e-012
4.4684e-005
4.94715e-013
0.000182868
1.50191e-012
0.000686342
3.39462e-012
0.00234691
7.5655e-012
0.0071959
-4.45866e-012
0.0192232
-1.74349e-012
0.0451436
-2.98872e-012
0.0934358
-1.25233e-013
0.170392
-6.29718e-013
0.272971
2.78444e-012
0.38988
2.13429e-012
0.507322
2.4345e-012
0.615964
-4.92495e-013
0.712393
2.02016e-012
0.796109
-3.12639e-013
0.868098