/*--------------------------------*- C++ -*----------------------------------*\
| =========                 |                                                 |
| \\      /  F ield         | OpenFOAM: The Open Source CFD Toolbox           |
|  \\    /   O peration     | Version:  5.x                                   |
|   \\  /    A nd           | Web:      www.OpenFOAM.org                      |
|    \\/     M anipulation  |                                                 |
\*---------------------------------------------------------------------------*/
/*   Windows 32 and 64 bit porting by blueCAPE: http://www.bluecape.com.pt   *\
|  Based on Windows porting (2.0.x v4) by Symscape: http://www.symscape.com   |
\*---------------------------------------------------------------------------*/
FoamFile
{
    version     2.0;
    format      ascii;
    class       volScalarField;
    location    "0.007";
    object      T;
}
// * * * * * * * * * * * * * * * * * * * * * * * * * * * * * * * * * * * * * //

dimensions      [0 0 0 1 0 0 0];

internalField   nonuniform List<scalar> 
10000
(
348.432
348.431
348.429
348.42
348.389
348.288
348.012
347.353
345.992
343.536
339.776
334.806
329.085
323.018
316.996
311.066
305.467
299.759
295.2
288.871
286.002
280.698
275.348
272.876
270.435
266.05
261.604
259.233
258.611
258.014
256.352
253.288
251.35
250.928
251.131
251.953
253.221
253.714
253.604
252.802
251.138
249.894
249.182
248.885
248.835
249.122
251.291
261.168
284.431
309.318
331.944
351.095
366.476
378.059
386.804
393.011
397.42
400.182
402.349
403.026
348.432
348.431
348.429
348.42
348.389
348.288
348.012
347.353
345.992
343.536
339.776
334.806
329.085
323.018
316.996
311.066
305.467
299.759
295.2
288.871
286.002
280.698
275.348
272.876
270.435
266.05
261.604
259.233
258.611
258.014
256.352
253.288
251.35
250.928
251.131
251.953
253.221
253.714
253.604
252.802
251.139
249.895
249.182
248.883
248.836
249.122
251.29
261.169
284.435
309.319
331.947
351.092
366.471
378.054
386.798
393.003
397.416
400.177
402.345
403.026
348.432
348.431
348.429
348.42
348.389
348.288
348.012
347.353
345.992
343.536
339.776
334.806
329.085
323.018
316.996
311.066
305.467
299.759
295.2
288.871
286.002
280.698
275.348
272.876
270.435
266.05
261.604
259.233
258.611
258.014
256.352
253.288
251.35
250.928
251.131
251.953
253.221
253.714
253.604
252.803
251.14
249.896
249.181
248.88
248.837
249.121
251.289
261.172
284.438
309.32
331.947
351.091
366.467
378.052
386.797
392.999
397.416
400.177
402.344
403.026
348.432
348.431
348.429
348.42
348.389
348.288
348.012
347.353
345.992
343.536
339.776
334.806
329.085
323.018
316.996
311.066
305.467
299.759
295.2
288.871
286.002
280.698
275.348
272.876
270.435
266.05
261.604
259.233
258.611
258.014
256.352
253.288
251.35
250.928
251.131
251.953
253.221
253.714
253.604
252.803
251.141
249.896
249.18
248.878
248.839
249.118
251.287
261.172
284.437
309.319
331.948
351.096
366.471
378.056
386.805
393.007
397.418
400.175
402.341
403.024
348.432
348.431
348.429
348.42
348.389
348.288
348.012
347.353
345.992
343.536
339.776
334.806
329.085
323.018
316.996
311.066
305.467
299.759
295.2
288.871
286.002
280.698
275.348
272.876
270.435
266.05
261.604
259.233
258.611
258.014
256.352
253.288
251.35
250.928
251.131
251.953
253.221
253.714
253.604
252.803
251.141
249.896
249.178
248.878
248.842
249.113
251.285
261.169
284.44
309.314
331.947
351.095
366.465
378.046
386.8
393.001
397.411
400.171
402.338
403.02
348.432
348.431
348.429
348.42
348.389
348.288
348.012
347.353
345.992
343.536
339.776
334.806
329.085
323.018
316.996
311.066
305.467
299.759
295.2
288.871
286.002
280.698
275.348
272.876
270.435
266.05
261.604
259.233
258.611
258.014
256.352
253.288
251.35
250.928
251.131
251.953
253.221
253.714
253.604
252.803
251.141
249.896
249.178
248.877
248.842
249.112
251.285
261.17
284.441
309.319
331.951
351.094
366.459
378.034
386.795
392.994
397.402
400.166
402.339
403.01
348.432
348.431
348.429
348.42
348.389
348.288
348.012
347.353
345.992
343.536
339.776
334.806
329.085
323.018
316.996
311.066
305.467
299.759
295.2
288.871
286.002
280.698
275.348
272.876
270.435
266.05
261.604
259.233
258.611
258.014
256.352
253.288
251.35
250.928
251.131
251.953
253.221
253.714
253.604
252.803
251.141
249.896
249.178
248.877
248.844
249.113
251.286
261.174
284.434
309.32
331.957
351.098
366.457
378.023
386.794
392.991
397.388
400.16
402.338
403.002
348.432
348.431
348.429
348.42
348.389
348.288
348.012
347.353
345.992
343.536
339.776
334.806
329.085
323.018
316.996
311.066
305.467
299.759
295.2
288.871
286.002
280.698
275.348
272.876
270.435
266.05
261.604
259.233
258.611
258.014
256.352
253.288
251.35
250.928
251.131
251.953
253.221
253.714
253.604
252.803
251.141
249.896
249.178
248.878
248.843
249.116
251.287
261.172
284.426
309.316
331.953
351.094
366.452
378.018
386.793
392.988
397.38
400.163
402.335
402.994
348.432
348.431
348.429
348.42
348.389
348.288
348.012
347.353
345.992
343.536
339.776
334.806
329.085
323.018
316.996
311.066
305.467
299.759
295.2
288.871
286.002
280.698
275.348
272.876
270.435
266.05
261.604
259.233
258.611
258.014
256.352
253.288
251.35
250.928
251.131
251.953
253.221
253.714
253.604
252.802
251.141
249.896
249.179
248.879
248.841
249.118
251.285
261.17
284.426
309.311
331.946
351.084
366.446
378.015
386.79
392.98
397.368
400.166
402.33
402.989
348.432
348.431
348.429
348.42
348.389
348.288
348.012
347.353
345.992
343.536
339.776
334.806
329.085
323.018
316.996
311.066
305.467
299.759
295.2
288.871
286.002
280.698
275.348
272.876
270.435
266.05
261.604
259.233
258.611
258.014
256.352
253.288
251.35
250.928
251.131
251.953
253.221
253.714
253.603
252.802
251.141
249.895
249.179
248.879
248.841
249.118
251.284
261.166
284.424
309.305
331.935
351.07
366.438
378.016
386.787
392.97
397.357
400.166
402.318
402.986
348.432
348.431
348.429
348.42
348.389
348.288
348.012
347.353
345.992
343.536
339.776
334.806
329.085
323.018
316.996
311.066
305.467
299.759
295.2
288.871
286.002
280.698
275.348
272.876
270.435
266.05
261.604
259.233
258.611
258.014
256.352
253.288
251.35
250.928
251.131
251.953
253.221
253.713
253.603
252.802
251.141
249.894
249.179
248.879
248.84
249.118
251.283
261.162
284.415
309.294
331.922
351.062
366.438
378.021
386.788
392.964
397.346
400.166
402.306
402.985
348.432
348.431
348.429
348.42
348.389
348.288
348.012
347.353
345.992
343.536
339.776
334.806
329.085
323.018
316.996
311.066
305.467
299.759
295.2
288.871
286.002
280.698
275.348
272.876
270.435
266.05
261.604
259.233
258.611
258.014
256.352
253.288
251.35
250.928
251.131
251.953
253.221
253.713
253.603
252.802
251.141
249.895
249.178
248.878
248.841
249.116
251.283
261.159
284.402
309.283
331.916
351.064
366.44
378.021
386.783
392.957
397.347
400.17
402.296
402.989
348.432
348.431
348.429
348.42
348.389
348.288
348.012
347.353
345.992
343.536
339.776
334.806
329.085
323.018
316.996
311.066
305.467
299.759
295.2
288.871
286.002
280.698
275.348
272.876
270.435
266.05
261.604
259.233
258.611
258.014
256.352
253.288
251.35
250.928
251.131
251.953
253.221
253.713
253.603
252.802
251.14
249.895
249.178
248.877
248.843
249.111
251.281
261.156
284.4
309.274
331.906
351.059
366.439
378.02
386.782
392.952
397.347
400.17
402.286
402.987
348.432
348.431
348.429
348.42
348.389
348.288
348.012
347.353
345.992
343.536
339.776
334.806
329.085
323.018
316.996
311.066
305.467
299.759
295.2
288.871
286.002
280.698
275.348
272.876
270.435
266.05
261.604
259.233
258.611
258.014
256.352
253.288
251.35
250.927
251.131
251.953
253.221
253.713
253.603
252.801
251.14
249.895
249.177
248.876
248.844
249.106
251.277
261.149
284.401
309.269
331.9
351.056
366.443
378.025
386.784
392.949
397.344
400.165
402.281
402.979
348.432
348.431
348.429
348.42
348.389
348.288
348.012
347.353
345.992
343.536
339.776
334.806
329.085
323.018
316.996
311.066
305.467
299.759
295.2
288.871
286.002
280.698
275.348
272.876
270.435
266.05
261.604
259.233
258.611
258.014
256.352
253.288
251.35
250.927
251.131
251.953
253.221
253.713
253.603
252.801
251.139
249.895
249.177
248.876
248.843
249.105
251.275
261.144
284.397
309.27
331.898
351.046
366.429
378.018
386.778
392.939
397.339
400.161
402.283
402.967
348.432
348.431
348.429
348.42
348.389
348.288
348.012
347.353
345.992
343.536
339.776
334.806
329.085
323.018
316.996
311.066
305.467
299.759
295.2
288.871
286.002
280.698
275.348
272.876
270.435
266.05
261.604
259.233
258.611
258.014
256.352
253.288
251.35
250.927
251.131
251.953
253.221
253.713
253.602
252.801
251.139
249.894
249.177
248.876
248.842
249.104
251.273
261.14
284.391
309.266
331.895
351.036
366.41
378.003
386.766
392.926
397.331
400.155
402.281
402.955
348.432
348.431
348.429
348.42
348.389
348.288
348.012
347.353
345.992
343.536
339.776
334.806
329.085
323.018
316.996
311.066
305.467
299.759
295.2
288.871
286.002
280.698
275.348
272.876
270.435
266.05
261.604
259.233
258.611
258.014
256.352
253.288
251.35
250.927
251.131
251.953
253.221
253.713
253.602
252.801
251.138
249.894
249.177
248.876
248.843
249.103
251.271
261.136
284.386
309.259
331.888
351.024
366.391
377.983
386.755
392.915
397.322
400.154
402.278
402.95
348.432
348.431
348.429
348.42
348.389
348.288
348.012
347.353
345.992
343.536
339.776
334.806
329.085
323.018
316.996
311.066
305.467
299.759
295.2
288.871
286.002
280.698
275.348
272.876
270.435
266.05
261.604
259.233
258.611
258.014
256.352
253.288
251.35
250.927
251.131
251.953
253.221
253.713
253.602
252.801
251.138
249.893
249.176
248.875
248.843
249.101
251.27
261.133
284.38
309.252
331.882
351.01
366.373
377.964
386.749
392.911
397.313
400.151
402.279
402.945
348.432
348.431
348.429
348.42
348.389
348.288
348.012
347.353
345.992
343.536
339.776
334.806
329.085
323.018
316.996
311.066
305.467
299.759
295.2
288.871
286.002
280.698
275.348
272.876
270.435
266.05
261.604
259.233
258.611
258.014
256.352
253.288
251.35
250.927
251.131
251.953
253.221
253.712
253.602
252.8
251.138
249.893
249.176
248.874
248.844
249.1
251.268
261.132
284.37
309.241
331.871
350.996
366.36
377.958
386.754
392.909
397.297
400.147
402.281
402.933
348.432
348.431
348.429
348.42
348.389
348.288
348.012
347.353
345.992
343.536
339.776
334.806
329.085
323.018
316.996
311.066
305.467
299.759
295.2
288.871
286.002
280.698
275.348
272.876
270.435
266.05
261.604
259.233
258.611
258.014
256.352
253.288
251.35
250.927
251.131
251.953
253.221
253.712
253.602
252.8
251.137
249.893
249.175
248.874
248.843
249.1
251.267
261.131
284.356
309.227
331.864
350.997
366.362
377.956
386.755
392.895
397.283
400.151
402.277
402.922
348.432
348.431
348.429
348.42
348.389
348.288
348.012
347.353
345.992
343.536
339.776
334.806
329.085
323.018
316.996
311.066
305.467
299.759
295.2
288.871
286.002
280.698
275.348
272.876
270.435
266.05
261.604
259.233
258.611
258.014
256.352
253.288
251.35
250.927
251.131
251.953
253.221
253.712
253.601
252.8
251.137
249.893
249.175
248.874
248.841
249.102
251.266
261.127
284.348
309.217
331.853
350.992
366.359
377.955
386.753
392.873
397.28
400.16
402.261
402.916
348.432
348.431
348.429
348.42
348.389
348.288
348.012
347.353
345.992
343.536
339.776
334.806
329.085
323.018
316.996
311.066
305.467
299.759
295.2
288.871
286.002
280.698
275.348
272.876
270.435
266.05
261.604
259.233
258.611
258.014
256.352
253.288
251.35
250.927
251.131
251.953
253.221
253.712
253.601
252.799
251.136
249.892
249.175
248.874
248.84
249.102
251.263
261.121
284.345
309.215
331.846
350.981
366.346
377.945
386.75
392.854
397.275
400.162
402.247
402.911
348.432
348.431
348.429
348.42
348.389
348.288
348.012
347.353
345.992
343.536
339.776
334.806
329.085
323.018
316.996
311.066
305.467
299.759
295.2
288.871
286.002
280.698
275.348
272.876
270.435
266.05
261.604
259.233
258.611
258.014
256.352
253.288
251.35
250.927
251.131
251.953
253.221
253.712
253.601
252.799
251.136
249.892
249.175
248.874
248.84
249.101
251.261
261.117
284.341
309.212
331.84
350.975
366.334
377.931
386.751
392.846
397.261
400.15
402.243
402.905
348.432
348.431
348.429
348.42
348.389
348.288
348.012
347.353
345.992
343.536
339.776
334.806
329.085
323.018
316.996
311.066
305.467
299.759
295.2
288.871
286.002
280.698
275.348
272.876
270.435
266.05
261.604
259.233
258.611
258.014
256.352
253.288
251.35
250.927
251.131
251.953
253.221
253.712
253.601
252.799
251.136
249.892
249.175
248.873
248.839
249.099
251.259
261.114
284.34
309.212
331.836
350.964
366.32
377.92
386.752
392.84
397.252
400.142
402.24
402.897
348.432
348.431
348.429
348.42
348.389
348.288
348.012
347.353
345.992
343.536
339.776
334.806
329.085
323.018
316.996
311.066
305.467
299.759
295.2
288.871
286.002
280.698
275.348
272.876
270.435
266.05
261.604
259.233
258.611
258.014
256.352
253.288
251.35
250.927
251.131
251.953
253.221
253.712
253.601
252.798
251.136
249.891
249.175
248.873
248.839
249.098
251.258
261.111
284.337
309.21
331.833
350.957
366.31
377.914
386.744
392.831
397.25
400.135
402.227
402.889
348.432
348.431
348.429
348.42
348.389
348.288
348.012
347.353
345.992
343.536
339.776
334.806
329.085
323.018
316.996
311.066
305.467
299.759
295.2
288.871
286.002
280.698
275.348
272.876
270.435
266.05
261.604
259.233
258.611
258.014
256.352
253.288
251.35
250.927
251.131
251.953
253.221
253.712
253.601
252.798
251.135
249.891
249.175
248.872
248.838
249.097
251.257
261.108
284.328
309.2
331.828
350.954
366.302
377.913
386.73
392.817
397.249
400.13
402.209
402.882
348.432
348.431
348.429
348.42
348.389
348.288
348.012
347.353
345.992
343.536
339.776
334.806
329.085
323.018
316.996
311.066
305.467
299.759
295.2
288.871
286.002
280.698
275.348
272.876
270.435
266.05
261.604
259.233
258.611
258.014
256.352
253.288
251.35
250.927
251.131
251.953
253.221
253.711
253.6
252.798
251.135
249.891
249.174
248.872
248.838
249.096
251.256
261.105
284.32
309.19
331.822
350.949
366.295
377.91
386.711
392.8
397.246
400.123
402.196
402.881
348.432
348.431
348.429
348.42
348.389
348.288
348.012
347.353
345.992
343.536
339.776
334.806
329.085
323.018
316.996
311.066
305.467
299.759
295.2
288.871
286.002
280.698
275.348
272.876
270.435
266.05
261.604
259.233
258.611
258.014
256.352
253.288
251.35
250.927
251.131
251.953
253.221
253.711
253.6
252.797
251.135
249.891
249.174
248.871
248.839
249.096
251.255
261.103
284.314
309.182
331.813
350.94
366.285
377.899
386.693
392.787
397.241
400.115
402.186
402.89
348.432
348.431
348.429
348.42
348.389
348.288
348.012
347.353
345.992
343.536
339.776
334.806
329.085
323.018
316.996
311.066
305.467
299.759
295.2
288.871
286.002
280.698
275.348
272.876
270.435
266.05
261.604
259.233
258.611
258.014
256.352
253.288
251.35
250.927
251.131
251.953
253.221
253.711
253.6
252.797
251.135
249.891
249.174
248.871
248.839
249.095
251.254
261.101
284.308
309.175
331.808
350.935
366.276
377.887
386.681
392.783
397.24
400.111
402.174
402.898
348.432
348.431
348.429
348.42
348.389
348.288
348.012
347.353
345.992
343.536
339.776
334.806
329.085
323.018
316.996
311.066
305.467
299.759
295.2
288.871
286.002
280.698
275.348
272.876
270.435
266.05
261.604
259.233
258.611
258.014
256.352
253.288
251.35
250.927
251.131
251.953
253.221
253.711
253.6
252.797
251.135
249.891
249.173
248.87
248.838
249.094
251.253
261.099
284.303
309.169
331.801
350.928
366.265
377.872
386.673
392.785
397.241
400.102
402.163
402.899
348.432
348.431
348.429
348.42
348.389
348.288
348.012
347.353
345.992
343.536
339.776
334.806
329.085
323.018
316.996
311.066
305.467
299.759
295.2
288.871
286.002
280.698
275.348
272.876
270.435
266.05
261.604
259.233
258.611
258.014
256.352
253.288
251.35
250.927
251.131
251.953
253.221
253.711
253.6
252.797
251.135
249.89
249.173
248.87
248.838
249.094
251.252
261.095
284.299
309.167
331.798
350.922
366.254
377.856
386.667
392.787
397.239
400.085
402.151
402.89
348.432
348.431
348.429
348.42
348.389
348.288
348.012
347.353
345.992
343.536
339.776
334.806
329.085
323.018
316.996
311.066
305.467
299.759
295.2
288.871
286.002
280.698
275.348
272.876
270.435
266.05
261.604
259.233
258.611
258.014
256.352
253.288
251.35
250.927
251.131
251.953
253.221
253.711
253.6
252.797
251.135
249.89
249.172
248.87
248.838
249.093
251.251
261.091
284.294
309.166
331.797
350.916
366.246
377.845
386.665
392.786
397.233
400.07
402.137
402.876
348.432
348.431
348.429
348.42
348.389
348.288
348.012
347.353
345.992
343.536
339.776
334.806
329.085
323.018
316.996
311.066
305.467
299.759
295.2
288.871
286.002
280.698
275.348
272.876
270.435
266.05
261.604
259.233
258.611
258.014
256.352
253.288
251.35
250.927
251.131
251.953
253.221
253.711
253.6
252.796
251.135
249.89
249.172
248.869
248.838
249.093
251.25
261.089
284.29
309.163
331.793
350.91
366.245
377.848
386.669
392.778
397.228
400.06
402.123
402.863
348.432
348.431
348.429
348.42
348.389
348.288
348.012
347.353
345.992
343.536
339.776
334.806
329.085
323.018
316.996
311.066
305.467
299.759
295.2
288.871
286.002
280.698
275.348
272.876
270.435
266.05
261.604
259.233
258.611
258.014
256.352
253.288
251.35
250.927
251.131
251.952
253.221
253.711
253.6
252.796
251.135
249.89
249.171
248.869
248.837
249.092
251.249
261.087
284.288
309.157
331.785
350.905
366.245
377.851
386.667
392.766
397.222
400.054
402.109
402.851
348.432
348.431
348.429
348.42
348.389
348.288
348.012
347.353
345.992
343.536
339.776
334.806
329.085
323.018
316.996
311.066
305.467
299.759
295.2
288.871
286.002
280.698
275.348
272.876
270.435
266.05
261.604
259.233
258.611
258.014
256.352
253.288
251.35
250.927
251.131
251.952
253.221
253.711
253.599
252.796
251.135
249.89
249.171
248.869
248.837
249.091
251.249
261.087
284.285
309.15
331.775
350.895
366.233
377.847
386.659
392.753
397.216
400.049
402.091
402.838
348.432
348.431
348.429
348.42
348.389
348.288
348.012
347.353
345.992
343.536
339.776
334.806
329.085
323.018
316.996
311.066
305.467
299.759
295.2
288.871
286.002
280.698
275.348
272.876
270.435
266.05
261.604
259.233
258.611
258.014
256.352
253.288
251.35
250.927
251.131
251.952
253.221
253.711
253.599
252.796
251.135
249.89
249.17
248.868
248.837
249.09
251.248
261.087
284.282
309.144
331.768
350.888
366.222
377.844
386.653
392.738
397.21
400.042
402.071
402.831
348.432
348.431
348.429
348.42
348.389
348.288
348.012
347.353
345.992
343.536
339.776
334.806
329.085
323.018
316.996
311.066
305.467
299.759
295.2
288.871
286.002
280.698
275.348
272.876
270.435
266.05
261.604
259.233
258.611
258.014
256.352
253.288
251.35
250.927
251.131
251.952
253.221
253.711
253.599
252.796
251.135
249.89
249.17
248.868
248.837
249.09
251.248
261.086
284.277
309.138
331.763
350.884
366.217
377.84
386.644
392.719
397.201
400.036
402.053
402.83
348.432
348.431
348.429
348.42
348.389
348.288
348.012
347.353
345.992
343.536
339.776
334.806
329.085
323.018
316.996
311.066
305.467
299.759
295.2
288.871
286.002
280.698
275.348
272.876
270.435
266.05
261.604
259.233
258.611
258.014
256.352
253.288
251.35
250.927
251.131
251.952
253.221
253.71
253.599
252.796
251.135
249.889
249.169
248.868
248.837
249.089
251.248
261.086
284.273
309.127
331.752
350.875
366.209
377.835
386.637
392.698
397.19
400.031
402.042
402.828
348.432
348.431
348.429
348.42
348.389
348.288
348.012
347.353
345.992
343.536
339.776
334.806
329.085
323.018
316.996
311.066
305.467
299.759
295.2
288.871
286.002
280.698
275.348
272.876
270.435
266.05
261.604
259.233
258.611
258.014
256.352
253.288
251.35
250.927
251.131
251.952
253.221
253.71
253.599
252.796
251.135
249.889
249.169
248.868
248.838
249.088
251.248
261.085
284.27
309.117
331.739
350.863
366.198
377.828
386.631
392.681
397.18
400.022
402.032
402.826
348.432
348.431
348.429
348.42
348.389
348.288
348.012
347.353
345.992
343.536
339.776
334.806
329.085
323.018
316.996
311.066
305.467
299.759
295.2
288.871
286.002
280.698
275.348
272.876
270.435
266.05
261.604
259.233
258.611
258.014
256.352
253.288
251.35
250.927
251.131
251.952
253.221
253.71
253.599
252.796
251.135
249.889
249.169
248.868
248.838
249.087
251.247
261.084
284.268
309.111
331.73
350.854
366.19
377.822
386.627
392.667
397.171
400.016
402.024
402.824
348.432
348.431
348.429
348.42
348.389
348.288
348.012
347.353
345.992
343.536
339.776
334.806
329.085
323.018
316.996
311.066
305.467
299.759
295.2
288.871
286.002
280.698
275.348
272.876
270.435
266.05
261.604
259.233
258.611
258.014
256.352
253.288
251.35
250.927
251.131
251.952
253.221
253.71
253.599
252.796
251.135
249.888
249.169
248.868
248.838
249.087
251.247
261.083
284.267
309.106
331.724
350.851
366.188
377.82
386.624
392.651
397.161
400.013
402.019
402.822
348.432
348.431
348.429
348.42
348.389
348.288
348.012
347.353
345.992
343.536
339.776
334.806
329.085
323.018
316.996
311.066
305.467
299.759
295.2
288.871
286.002
280.698
275.348
272.876
270.435
266.05
261.604
259.233
258.611
258.014
256.352
253.288
251.35
250.927
251.131
251.952
253.221
253.71
253.599
252.796
251.135
249.888
249.169
248.868
248.838
249.086
251.246
261.081
284.267
309.102
331.721
350.851
366.186
377.82
386.621
392.633
397.151
400.011
402.017
402.82
348.432
348.431
348.429
348.42
348.389
348.288
348.012
347.353
345.992
343.536
339.776
334.806
329.085
323.018
316.996
311.066
305.467
299.759
295.2
288.871
286.002
280.698
275.348
272.876
270.435
266.05
261.604
259.233
258.611
258.014
256.352
253.288
251.35
250.927
251.131
251.952
253.221
253.71
253.599
252.796
251.135
249.887
249.168
248.868
248.838
249.086
251.246
261.08
284.267
309.102
331.72
350.85
366.185
377.822
386.615
392.615
397.141
400.011
402.016
402.816
348.432
348.431
348.429
348.42
348.389
348.288
348.012
347.353
345.992
343.536
339.776
334.806
329.085
323.018
316.996
311.066
305.467
299.759
295.2
288.871
286.002
280.698
275.348
272.876
270.435
266.05
261.604
259.233
258.611
258.014
256.352
253.288
251.35
250.927
251.131
251.952
253.221
253.71
253.599
252.796
251.135
249.887
249.168
248.868
248.838
249.085
251.245
261.08
284.269
309.104
331.72
350.849
366.182
377.823
386.608
392.599
397.132
400.014
402.01
402.806
348.432
348.431
348.429
348.42
348.389
348.288
348.012
347.353
345.992
343.536
339.776
334.806
329.085
323.018
316.996
311.066
305.467
299.759
295.2
288.871
286.002
280.698
275.348
272.876
270.435
266.05
261.604
259.233
258.611
258.014
256.352
253.288
251.35
250.927
251.131
251.952
253.221
253.71
253.598
252.795
251.135
249.887
249.168
248.868
248.838
249.085
251.245
261.079
284.27
309.106
331.718
350.848
366.179
377.827
386.603
392.585
397.124
400.015
401.997
402.788
348.432
348.431
348.429
348.42
348.389
348.288
348.012
347.353
345.992
343.536
339.776
334.806
329.085
323.018
316.996
311.066
305.467
299.759
295.2
288.871
286.002
280.698
275.348
272.876
270.435
266.05
261.604
259.233
258.611
258.014
256.352
253.288
251.35
250.927
251.131
251.952
253.221
253.71
253.598
252.795
251.135
249.887
249.168
248.868
248.838
249.085
251.245
261.079
284.27
309.108
331.719
350.848
366.178
377.833
386.597
392.572
397.118
400.012
401.975
402.765
348.432
348.431
348.429
348.42
348.389
348.288
348.012
347.353
345.992
343.536
339.776
334.806
329.085
323.018
316.996
311.066
305.467
299.759
295.2
288.871
286.002
280.698
275.348
272.876
270.435
266.05
261.604
259.233
258.611
258.014
256.352
253.288
251.35
250.927
251.131
251.952
253.221
253.71
253.598
252.795
251.135
249.887
249.168
248.868
248.838
249.084
251.244
261.078
284.269
309.109
331.723
350.851
366.179
377.841
386.588
392.559
397.112
400.005
401.946
402.743
348.432
348.431
348.429
348.42
348.389
348.288
348.012
347.353
345.992
343.536
339.776
334.806
329.085
323.018
316.996
311.066
305.467
299.759
295.2
288.871
286.002
280.698
275.348
272.876
270.435
266.05
261.604
259.233
258.611
258.014
256.352
253.288
251.35
250.927
251.131
251.952
253.221
253.71
253.598
252.795
251.135
249.886
249.168
248.868
248.838
249.084
251.244
261.077
284.269
309.11
331.728
350.853
366.183
377.848
386.574
392.547
397.107
399.995
401.915
402.724
348.432
348.431
348.429
348.42
348.389
348.288
348.012
347.353
345.992
343.536
339.776
334.806
329.085
323.018
316.996
311.066
305.467
299.759
295.2
288.871
286.002
280.698
275.348
272.876
270.435
266.05
261.604
259.233
258.611
258.014
256.352
253.288
251.35
250.927
251.131
251.952
253.221
253.71
253.598
252.795
251.135
249.886
249.168
248.868
248.838
249.084
251.244
261.075
284.269
309.11
331.732
350.854
366.186
377.852
386.554
392.537
397.101
399.983
401.885
402.708
348.432
348.431
348.429
348.42
348.389
348.288
348.012
347.353
345.992
343.536
339.776
334.806
329.085
323.018
316.996
311.066
305.467
299.759
295.2
288.871
286.002
280.698
275.348
272.876
270.435
266.05
261.604
259.233
258.611
258.014
256.352
253.288
251.35
250.927
251.131
251.952
253.221
253.71
253.598
252.795
251.135
249.886
249.168
248.868
248.838
249.084
251.244
261.075
284.269
309.109
331.732
350.853
366.19
377.853
386.532
392.529
397.099
399.969
401.86
402.696
348.432
348.431
348.429
348.42
348.389
348.288
348.012
347.353
345.992
343.536
339.776
334.806
329.085
323.018
316.996
311.066
305.467
299.759
295.2
288.871
286.002
280.698
275.348
272.876
270.435
266.05
261.604
259.233
258.611
258.014
256.352
253.288
251.35
250.927
251.13
251.952
253.221
253.71
253.598
252.795
251.135
249.886
249.168
248.868
248.838
249.083
251.243
261.072
284.271
309.107
331.718
350.859
366.169
377.891
386.434
392.55
397.046
399.971
401.872
402.294
348.432
348.431
348.429
348.42
348.389
348.288
348.012
347.353
345.992
343.536
339.776
334.806
329.085
323.018
316.996
311.066
305.467
299.759
295.2
288.871
286.002
280.698
275.348
272.876
270.435
266.05
261.604
259.233
258.611
258.014
256.352
253.288
251.35
250.927
251.13
251.952
253.221
253.71
253.598
252.794
251.135
249.885
249.167
248.868
248.837
249.082
251.242
261.064
284.254
309.093
331.708
350.849
366.189
377.839
386.39
392.548
397.035
399.949
401.802
402.211
348.432
348.431
348.429
348.42
348.389
348.288
348.012
347.353
345.992
343.536
339.776
334.806
329.085
323.018
316.996
311.066
305.467
299.759
295.2
288.871
286.002
280.698
275.348
272.876
270.435
266.05
261.604
259.233
258.611
258.014
256.352
253.288
251.35
250.927
251.13
251.951
253.221
253.709
253.597
252.794
251.136
249.884
249.166
248.867
248.837
249.081
251.24
261.056
284.24
309.079
331.683
350.847
366.19
377.773
386.352
392.549
397.025
399.937
401.785
402.152
348.432
348.431
348.429
348.42
348.389
348.288
348.012
347.353
345.992
343.536
339.776
334.806
329.085
323.018
316.996
311.066
305.467
299.759
295.2
288.871
286.002
280.698
275.348
272.876
270.435
266.05
261.604
259.233
258.611
258.014
256.352
253.288
251.35
250.927
251.13
251.951
253.22
253.709
253.597
252.794
251.136
249.883
249.165
248.866
248.836
249.078
251.237
261.05
284.234
309.063
331.663
350.838
366.164
377.74
386.326
392.538
397.004
399.906
401.759
402.103
348.432
348.431
348.429
348.42
348.389
348.288
348.012
347.353
345.992
343.536
339.776
334.806
329.085
323.018
316.996
311.066
305.467
299.759
295.2
288.871
286.002
280.698
275.348
272.876
270.435
266.05
261.604
259.233
258.611
258.014
256.352
253.288
251.35
250.927
251.13
251.951
253.22
253.709
253.597
252.793
251.136
249.883
249.164
248.866
248.835
249.076
251.235
261.046
284.231
309.057
331.658
350.836
366.136
377.713
386.324
392.519
396.98
399.873
401.716
402.061
348.432
348.431
348.429
348.42
348.389
348.288
348.012
347.353
345.992
343.536
339.776
334.806
329.085
323.018
316.996
311.066
305.467
299.759
295.2
288.871
286.002
280.698
275.348
272.876
270.435
266.05
261.604
259.233
258.611
258.014
256.352
253.288
251.35
250.927
251.13
251.951
253.22
253.709
253.597
252.793
251.135
249.882
249.162
248.865
248.833
249.072
251.231
261.038
284.226
309.048
331.641
350.821
366.109
377.692
386.311
392.503
396.955
399.851
401.681
402.034
348.432
348.431
348.429
348.42
348.389
348.288
348.012
347.353
345.992
343.536
339.776
334.806
329.085
323.018
316.996
311.066
305.467
299.759
295.2
288.871
286.002
280.698
275.348
272.876
270.435
266.05
261.604
259.233
258.611
258.014
256.352
253.288
251.35
250.927
251.13
251.951
253.22
253.709
253.597
252.793
251.135
249.881
249.161
248.864
248.831
249.069
251.228
261.03
284.225
309.047
331.647
350.825
366.124
377.702
386.312
392.512
396.939
399.832
401.666
402
348.432
348.431
348.429
348.42
348.389
348.288
348.012
347.353
345.992
343.536
339.776
334.806
329.085
323.018
316.996
311.066
305.467
299.759
295.2
288.871
286.002
280.698
275.348
272.876
270.435
266.05
261.604
259.233
258.611
258.014
256.352
253.288
251.35
250.927
251.13
251.951
253.22
253.709
253.596
252.793
251.134
249.88
249.159
248.862
248.829
249.068
251.228
261.028
284.214
309.03
331.625
350.78
366.082
377.664
386.285
392.482
396.913
399.794
401.642
401.973
348.432
348.431
348.429
348.42
348.389
348.288
348.012
347.353
345.992
343.536
339.776
334.806
329.085
323.018
316.996
311.066
305.467
299.759
295.2
288.871
286.002
280.698
275.348
272.876
270.435
266.05
261.604
259.233
258.611
258.014
256.352
253.288
251.35
250.927
251.13
251.95
253.22
253.709
253.596
252.793
251.134
249.88
249.159
248.861
248.828
249.067
251.227
261.023
284.202
309.019
331.617
350.778
366.041
377.633
386.268
392.471
396.895
399.769
401.619
401.96
348.432
348.431
348.429
348.42
348.389
348.288
348.012
347.353
345.992
343.536
339.776
334.806
329.085
323.018
316.996
311.066
305.467
299.759
295.2
288.871
286.002
280.698
275.348
272.876
270.435
266.05
261.604
259.233
258.611
258.014
256.352
253.288
251.35
250.927
251.13
251.95
253.219
253.709
253.596
252.793
251.134
249.88
249.159
248.86
248.827
249.065
251.225
261.016
284.187
309.001
331.601
350.764
366.019
377.631
386.274
392.471
396.889
399.751
401.621
401.954
348.432
348.431
348.429
348.42
348.389
348.288
348.012
347.353
345.992
343.536
339.776
334.806
329.085
323.018
316.996
311.066
305.467
299.759
295.2
288.871
286.002
280.698
275.348
272.876
270.435
266.05
261.604
259.233
258.611
258.014
256.352
253.288
251.35
250.926
251.13
251.95
253.219
253.708
253.596
252.793
251.133
249.881
249.159
248.86
248.826
249.064
251.223
261.012
284.175
308.985
331.589
350.751
366.019
377.626
386.267
392.464
396.874
399.737
401.633
401.953
348.432
348.431
348.429
348.42
348.389
348.288
348.012
347.353
345.992
343.536
339.776
334.806
329.085
323.018
316.996