/*--------------------------------*- C++ -*----------------------------------*\
| =========                 |                                                 |
| \\      /  F ield         | OpenFOAM: The Open Source CFD Toolbox           |
|  \\    /   O peration     | Version:  5.x                                   |
|   \\  /    A nd           | Web:      www.OpenFOAM.org                      |
|    \\/     M anipulation  |                                                 |
\*---------------------------------------------------------------------------*/
/*   Windows 32 and 64 bit porting by blueCAPE: http://www.bluecape.com.pt   *\
|  Based on Windows porting (2.0.x v4) by Symscape: http://www.symscape.com   |
\*---------------------------------------------------------------------------*/
FoamFile
{
    version     2.0;
    format      ascii;
    class       volVectorField;
    location    "0.007";
    object      U;
}
// * * * * * * * * * * * * * * * * * * * * * * * * * * * * * * * * * * * * * //

dimensions      [0 1 -1 0 0 0 0];

internalField   nonuniform List<vector> 
10000
(
(0.000330964 -9.48471e-013 0)
(0.00182618 -1.8616e-014 0)
(0.00789059 -2.69828e-013 0)
(0.0317702 9.53325e-013 0)
(0.116434 4.22357e-013 0)
(0.382941 6.82835e-013 0)
(1.10964 1.94676e-012 0)
(2.84045 1.3544e-012 0)
(6.43838 1.76897e-012 0)
(12.9152 5.04704e-013 0)
(22.9403 -2.20579e-012 0)
(36.2487 1.83687e-012 0)
(51.9235 -1.78928e-012 0)
(68.6169 3.34419e-013 0)
(85.5894 -1.28033e-012 0)
(102.289 -2.30789e-012 0)
(118.682 -5.19116e-012 0)
(134.464 8.50062e-012 0)
(149.876 -3.23387e-013 0)
(164.615 6.06815e-013 0)
(178.694 6.87036e-013 0)
(192.292 -7.18831e-013 0)
(205.035 2.7215e-012 0)
(217.062 -1.93313e-012 0)
(228.376 4.03599e-011 0)
(238.804 7.91075e-011 0)
(248.269 1.06369e-009 0)
(256.875 7.41809e-009 0)
(264.547 2.80761e-008 0)
(270.961 2.26077e-007 0)
(276.35 6.26279e-007 0)
(280.929 2.94315e-006 0)
(284.5 7.73135e-006 0)
(287.32 2.0417e-005 0)
(289.497 4.47618e-005 0)
(290.827 7.04681e-005 0)
(291.707 0.000192314 0)
(292.29 0.000254047 0)
(292.4 0.000398814 0)
(292.395 0.00110616 0)
(292.48 0.00122455 0)
(292.599 0.00178963 0)
(292.749 0.00147221 0)
(292.925 0.00135806 0)
(293.118 0.00183295 0)
(293.305 0.00280004 0)
(293.458 0.00286635 0)
(293.532 0.00381067 0)
(293.494 0.00621613 0)
(293.376 0.00742956 0)
(293.218 0.00696221 0)
(293.038 0.0102084 0)
(292.845 0.0114708 0)
(292.655 0.0133639 0)
(292.5 0.0153159 0)
(292.376 0.0155877 0)
(292.256 0.0186402 0)
(292.184 0.0219487 0)
(292.142 0.0213042 0)
(292.076 0.0207085 0)
(0.000330964 -3.99852e-012 0)
(0.00182618 -4.51538e-012 0)
(0.00789059 4.42077e-012 0)
(0.0317702 3.8249e-012 0)
(0.116434 4.59895e-012 0)
(0.382941 -5.60981e-013 0)
(1.10964 -2.19475e-012 0)
(2.84045 2.62662e-012 0)
(6.43838 2.79185e-013 0)
(12.9152 -3.40491e-013 0)
(22.9403 5.07382e-012 0)
(36.2487 -2.89896e-013 0)
(51.9235 2.67284e-012 0)
(68.6169 -2.02045e-012 0)
(85.5894 -1.15497e-013 0)
(102.289 1.73549e-012 0)
(118.682 -1.99818e-012 0)
(134.464 -6.15689e-012 0)
(149.876 -4.00284e-012 0)
(164.615 6.40382e-013 0)
(178.694 2.10933e-012 0)
(192.292 2.6086e-012 0)
(205.035 5.62012e-012 0)
(217.062 -6.01517e-012 0)
(228.376 1.15626e-010 0)
(238.804 2.27654e-010 0)
(248.269 3.13813e-009 0)
(256.875 2.18946e-008 0)
(264.547 8.30952e-008 0)
(270.961 6.68227e-007 0)
(276.35 1.85448e-006 0)
(280.929 8.70676e-006 0)
(284.5 2.2916e-005 0)
(287.32 6.05656e-005 0)
(289.497 0.000132702 0)
(290.827 0.000211855 0)
(291.707 0.000559963 0)
(292.29 0.000746684 0)
(292.4 0.00121908 0)
(292.395 0.0033338 0)
(292.48 0.00312179 0)
(292.599 0.00611522 0)
(292.749 0.00597109 0)
(292.925 0.00502771 0)
(293.118 0.00659247 0)
(293.305 0.00991357 0)
(293.458 0.00939943 0)
(293.532 0.0121219 0)
(293.494 0.0173694 0)
(293.376 0.0216014 0)
(293.218 0.0247392 0)
(293.039 0.0319228 0)
(292.846 0.035777 0)
(292.655 0.0390136 0)
(292.501 0.0436913 0)
(292.376 0.0456384 0)
(292.257 0.05138 0)
(292.184 0.0576184 0)
(292.142 0.0565608 0)
(292.076 0.0621366 0)
(0.000330964 -2.66388e-012 0)
(0.00182618 -2.37263e-012 0)
(0.00789059 6.54943e-012 0)
(0.0317702 7.9933e-012 0)
(0.116434 2.92727e-012 0)
(0.382941 -9.78263e-013 0)
(1.10964 1.05412e-012 0)
(2.84045 6.82916e-013 0)
(6.43838 3.62008e-012 0)
(12.9152 -1.9535e-012 0)
(22.9403 3.96029e-012 0)
(36.2487 4.77842e-012 0)
(51.9235 -1.44967e-012 0)
(68.6169 2.60179e-013 0)
(85.5894 1.3736e-012 0)
(102.289 -3.89299e-012 0)
(118.682 -6.02102e-012 0)
(134.464 8.94454e-012 0)
(149.876 -1.70603e-012 0)
(164.615 -2.60544e-012 0)
(178.694 6.87441e-013 0)
(192.292 -1.55086e-012 0)
(205.035 8.28535e-012 0)
(217.062 -1.07969e-011 0)
(228.376 1.89328e-010 0)
(238.804 3.70114e-010 0)
(248.269 5.11978e-009 0)
(256.875 3.55828e-008 0)
(264.547 1.35646e-007 0)
(270.961 1.08831e-006 0)
(276.35 3.03033e-006 0)
(280.929 1.42034e-005 0)
(284.5 3.75327e-005 0)
(287.32 9.92468e-005 0)
(289.497 0.000217952 0)
(290.827 0.000352962 0)
(291.707 0.000894122 0)
(292.29 0.00121065 0)
(292.4 0.00204287 0)
(292.395 0.00535539 0)
(292.48 0.00631203 0)
(292.599 0.0129272 0)
(292.749 0.0109422 0)
(292.925 0.00817667 0)
(293.118 0.0135104 0)
(293.305 0.019438 0)
(293.458 0.0171017 0)
(293.532 0.0205168 0)
(293.495 0.0260706 0)
(293.376 0.033421 0)
(293.219 0.0427471 0)
(293.039 0.0509609 0)
(292.846 0.0577105 0)
(292.656 0.0622464 0)
(292.501 0.0702386 0)
(292.377 0.0808665 0)
(292.258 0.0865523 0)
(292.185 0.0936432 0)
(292.143 0.101261 0)
(292.078 0.100924 0)
(0.000330964 -5.36572e-012 0)
(0.00182618 -4.42295e-012 0)
(0.00789059 1.0228e-011 0)
(0.0317702 4.16205e-012 0)
(0.116434 5.75501e-012 0)
(0.382941 2.01044e-012 0)
(1.10964 -1.46213e-012 0)
(2.84045 -1.63258e-013 0)
(6.43838 1.73731e-012 0)
(12.9152 2.27587e-012 0)
(22.9403 4.61575e-012 0)
(36.2487 3.61941e-012 0)
(51.9235 1.55425e-013 0)
(68.6169 -1.71754e-012 0)
(85.5894 -4.17068e-013 0)
(102.289 1.30771e-012 0)
(118.682 -6.14421e-012 0)
(134.464 -1.50077e-012 0)
(149.876 -3.46544e-013 0)
(164.615 -4.46132e-013 0)
(178.694 2.97143e-012 0)
(192.292 -1.18934e-012 0)
(205.035 8.25145e-012 0)
(217.062 -1.75967e-011 0)
(228.376 2.56889e-010 0)
(238.804 4.97721e-010 0)
(248.269 6.98315e-009 0)
(256.875 4.83232e-008 0)
(264.547 1.85344e-007 0)
(270.961 1.48281e-006 0)
(276.35 4.14754e-006 0)
(280.929 1.93965e-005 0)
(284.5 5.15528e-005 0)
(287.32 0.000136365 0)
(289.497 0.00030079 0)
(290.828 0.00049428 0)
(291.707 0.00119112 0)
(292.29 0.00165308 0)
(292.4 0.00279244 0)
(292.396 0.00707191 0)
(292.481 0.0129901 0)
(292.599 0.0201217 0)
(292.749 0.0204001 0)
(292.925 0.0183128 0)
(293.119 0.0221051 0)
(293.306 0.017642 0)
(293.458 0.0166558 0)
(293.533 0.0256366 0)
(293.496 0.0346601 0)
(293.377 0.0470602 0)
(293.22 0.0600469 0)
(293.04 0.0715711 0)
(292.847 0.0808948 0)
(292.656 0.0869673 0)
(292.503 0.0981179 0)
(292.379 0.114806 0)
(292.259 0.119018 0)
(292.187 0.127393 0)
(292.143 0.143902 0)
(292.075 0.140074 0)
(0.000330964 -4.33099e-012 0)
(0.00182618 -2.69378e-012 0)
(0.00789059 1.16024e-011 0)
(0.0317702 1.11125e-011 0)
(0.116434 8.80204e-012 0)
(0.382941 -1.89814e-012 0)
(1.10964 3.92967e-015 0)
(2.84045 5.95532e-014 0)
(6.43838 2.91194e-012 0)
(12.9152 5.41685e-013 0)
(22.9403 2.54808e-012 0)
(36.2487 2.26622e-012 0)
(51.9235 -4.03551e-013 0)
(68.6169 2.27937e-012 0)
(85.5894 2.22192e-012 0)
(102.289 -6.85597e-012 0)
(118.682 -6.20505e-012 0)
(134.464 4.28074e-012 0)
(149.876 -2.88885e-012 0)
(164.615 1.3745e-012 0)
(178.694 4.27249e-016 0)
(192.292 -1.90175e-012 0)
(205.035 1.16633e-011 0)
(217.062 -2.25878e-011 0)
(228.376 3.20432e-010 0)
(238.804 6.11115e-010 0)
(248.269 8.72097e-009 0)
(256.875 6.00118e-008 0)
(264.547 2.31932e-007 0)
(270.961 1.84923e-006 0)
(276.35 5.20159e-006 0)
(280.929 2.42606e-005 0)
(284.5 6.49501e-005 0)
(287.32 0.00017189 0)
(289.497 0.000381121 0)
(290.828 0.000637117 0)
(291.708 0.00144885 0)
(292.29 0.00207856 0)
(292.401 0.00344793 0)
(292.397 0.00861301 0)
(292.481 0.0167636 0)
(292.6 0.0208692 0)
(292.749 0.0245996 0)
(292.925 0.0261252 0)
(293.118 0.028897 0)
(293.305 0.0235791 0)
(293.459 0.0255801 0)
(293.534 0.0345943 0)
(293.497 0.0458487 0)
(293.379 0.0606755 0)
(293.222 0.0754184 0)
(293.041 0.0905887 0)
(292.848 0.105415 0)
(292.657 0.114127 0)
(292.505 0.125866 0)
(292.38 0.142019 0)
(292.259 0.148505 0)
(292.189 0.160673 0)
(292.144 0.181553 0)
(292.077 0.184189 0)
(0.000330964 -5.34216e-012 0)
(0.00182618 -4.21617e-012 0)
(0.00789059 1.38994e-011 0)
(0.0317702 8.26075e-012 0)
(0.116434 1.30803e-011 0)
(0.382941 2.29309e-012 0)
(1.10964 -7.47242e-013 0)
(2.84045 -3.91858e-012 0)
(6.43838 2.59117e-012 0)
(12.9152 -1.69361e-012 0)
(22.9403 -5.93079e-014 0)
(36.2487 2.87815e-012 0)
(51.9235 -1.27432e-012 0)
(68.6169 3.0575e-012 0)
(85.5894 -2.85735e-013 0)
(102.289 -1.4337e-013 0)
(118.682 -2.97908e-012 0)
(134.464 -2.78838e-013 0)
(149.876 -4.68732e-012 0)
(164.615 1.41613e-012 0)
(178.694 -1.2004e-013 0)
(192.292 -3.81025e-012 0)
(205.035 1.44905e-011 0)
(217.062 -2.76443e-011 0)
(228.376 3.77687e-010 0)
(238.804 7.08037e-010 0)
(248.269 1.03239e-008 0)
(256.875 7.05771e-008 0)
(264.547 2.75225e-007 0)
(270.961 2.18592e-006 0)
(276.35 6.18942e-006 0)
(280.929 2.87792e-005 0)
(284.5 7.77072e-005 0)
(287.32 0.000205762 0)
(289.497 0.000459187 0)
(290.828 0.000779923 0)
(291.708 0.00167443 0)
(292.29 0.00248425 0)
(292.401 0.00404057 0)
(292.397 0.0102824 0)
(292.482 0.015381 0)
(292.6 0.0178224 0)
(292.749 0.0207949 0)
(292.926 0.0248296 0)
(293.119 0.031871 0)
(293.305 0.0410992 0)
(293.459 0.0459006 0)
(293.535 0.0499659 0)
(293.498 0.0645822 0)
(293.38 0.074046 0)
(293.223 0.0864297 0)
(293.043 0.105743 0)
(292.849 0.127579 0)
(292.659 0.137914 0)
(292.507 0.150053 0)
(292.382 0.17049 0)
(292.261 0.182036 0)
(292.192 0.195821 0)
(292.146 0.219479 0)
(292.077 0.226397 0)
(0.000330964 -2.88771e-012 0)
(0.00182618 -5.7896e-012 0)
(0.00789059 1.50947e-011 0)
(0.0317702 1.20201e-011 0)
(0.116434 1.2775e-011 0)
(0.382941 -7.7145e-013 0)
(1.10964 -3.03651e-012 0)
(2.84045 -3.97848e-012 0)
(6.43838 -1.74925e-012 0)
(12.9152 2.54252e-013 0)
(22.9403 6.67915e-013 0)
(36.2487 6.01754e-012 0)
(51.9235 -2.07725e-012 0)
(68.6169 5.23642e-012 0)
(85.5894 -2.57601e-012 0)
(102.289 1.65531e-012 0)
(118.682 -5.3139e-012 0)
(134.464 -3.17289e-014 0)
(149.876 -2.15935e-012 0)
(164.615 -7.85092e-013 0)
(178.694 -9.35969e-013 0)
(192.292 -1.40882e-012 0)
(205.035 1.35184e-011 0)
(217.062 -3.21908e-011 0)
(228.376 4.29518e-010 0)
(238.804 7.91348e-010 0)
(248.269 1.17879e-008 0)
(256.875 7.99895e-008 0)
(264.547 3.15117e-007 0)
(270.961 2.49201e-006 0)
(276.35 7.10923e-006 0)
(280.929 3.29438e-005 0)
(284.5 8.98083e-005 0)
(287.32 0.000237961 0)
(289.497 0.000534969 0)
(290.828 0.000921959 0)
(291.708 0.00187413 0)
(292.291 0.00286697 0)
(292.402 0.00460118 0)
(292.398 0.0120631 0)
(292.482 0.0137342 0)
(292.6 0.0166 0)
(292.75 0.0203366 0)
(292.926 0.0255165 0)
(293.12 0.0367604 0)
(293.306 0.0543032 0)
(293.46 0.0611433 0)
(293.536 0.0642432 0)
(293.499 0.0773412 0)
(293.381 0.0854092 0)
(293.224 0.0982896 0)
(293.046 0.119727 0)
(292.851 0.143962 0)
(292.66 0.157525 0)
(292.509 0.173112 0)
(292.384 0.199056 0)
(292.263 0.213486 0)
(292.194 0.228575 0)
(292.149 0.256916 0)
(292.079 0.271726 0)
(0.000330964 -2.18922e-012 0)
(0.00182618 -9.60986e-012 0)
(0.00789059 1.66807e-011 0)
(0.0317702 8.41412e-012 0)
(0.116434 1.76499e-011 0)
(0.382941 9.75338e-013 0)
(1.10964 -1.53629e-012 0)
(2.84045 -5.64859e-012 0)
(6.43838 -2.15177e-012 0)
(12.9152 -2.73966e-012 0)
(22.9403 1.67546e-012 0)
(36.2487 1.0832e-012 0)
(51.9235 -2.90152e-012 0)
(68.6169 3.01454e-012 0)
(85.5894 -2.95539e-013 0)
(102.289 -1.16107e-012 0)
(118.682 -2.28805e-012 0)
(134.464 2.02318e-012 0)
(149.876 -1.28733e-012 0)
(164.615 2.83235e-012 0)
(178.694 -2.25552e-013 0)
(192.292 -2.6601e-012 0)
(205.035 1.7449e-011 0)
(217.062 -3.55325e-011 0)
(228.376 4.76571e-010 0)
(238.804 8.55751e-010 0)
(248.269 1.31123e-008 0)
(256.875 8.82419e-008 0)
(264.547 3.51571e-007 0)
(270.961 2.76723e-006 0)
(276.35 7.96033e-006 0)
(280.929 3.67521e-005 0)
(284.5 0.000101246 0)
(287.32 0.00026846 0)
(289.497 0.000608529 0)
(290.828 0.00106209 0)
(291.708 0.00205454 0)
(292.291 0.00322925 0)
(292.402 0.00516967 0)
(292.398 0.0133513 0)
(292.482 0.0137032 0)
(292.601 0.0195766 0)
(292.75 0.025144 0)
(292.927 0.0345113 0)
(293.122 0.0447903 0)
(293.307 0.0604055 0)
(293.46 0.0701909 0)
(293.536 0.0742531 0)
(293.5 0.0800332 0)
(293.382 0.0931889 0)
(293.226 0.112965 0)
(293.048 0.132861 0)
(292.853 0.155728 0)
(292.662 0.177826 0)
(292.512 0.198613 0)
(292.387 0.226435 0)
(292.265 0.245879 0)
(292.198 0.266807 0)
(292.153 0.29692 0)
(292.081 0.317824 0)
(0.000330964 -1.78441e-012 0)
(0.00182618 -1.03447e-011 0)
(0.00789059 1.54167e-011 0)
(0.0317702 1.12687e-011 0)
(0.116434 1.99801e-011 0)
(0.382941 7.88266e-013 0)
(1.10964 -4.9282e-012 0)
(2.84045 -3.00922e-012 0)
(6.43838 -3.07593e-012 0)
(12.9152 -3.53505e-013 0)
(22.9403 4.63438e-012 0)
(36.2487 8.19678e-013 0)
(51.9235 3.34552e-012 0)
(68.6169 3.19426e-012 0)
(85.5894 -1.65104e-013 0)
(102.289 1.21876e-012 0)
(118.682 -4.64893e-012 0)
(134.464 9.98288e-013 0)
(149.876 -4.45611e-012 0)
(164.615 1.88766e-012 0)
(178.694 -3.23789e-012 0)
(192.292 -1.37049e-012 0)
(205.035 1.63867e-011 0)
(217.062 -4.21708e-011 0)
(228.376 5.16958e-010 0)
(238.804 9.05112e-010 0)
(248.269 1.43e-008 0)
(256.875 9.53539e-008 0)
(264.547 3.84604e-007 0)
(270.961 3.01187e-006 0)
(276.35 8.74292e-006 0)
(280.929 4.02071e-005 0)
(284.5 0.000112019 0)
(287.32 0.000297238 0)
(289.497 0.000679943 0)
(290.828 0.00119935 0)
(291.708 0.00222102 0)
(292.291 0.00357869 0)
(292.402 0.00576294 0)
(292.398 0.0139608 0)
(292.483 0.0164332 0)
(292.601 0.025665 0)
(292.751 0.0338439 0)
(292.928 0.0452209 0)
(293.123 0.0507621 0)
(293.309 0.0606589 0)
(293.461 0.0719573 0)
(293.536 0.0804 0)
(293.5 0.0869254 0)
(293.383 0.103535 0)
(293.228 0.128044 0)
(293.05 0.148354 0)
(292.855 0.169992 0)
(292.664 0.19813 0)
(292.515 0.224327 0)
(292.39 0.250128 0)
(292.268 0.275804 0)
(292.202 0.306433 0)
(292.157 0.332983 0)
(292.084 0.360337 0)
(0.000330964 -9.63978e-013 0)
(0.00182618 -1.05043e-011 0)
(0.00789059 1.83247e-011 0)
(0.0317702 1.20119e-011 0)
(0.116434 2.34192e-011 0)
(0.382941 -3.71925e-013 0)
(1.10964 -5.0446e-012 0)
(2.84045 -4.83408e-012 0)
(6.43838 -3.35804e-012 0)
(12.9152 -1.41874e-012 0)
(22.9403 -9.58285e-013 0)
(36.2487 2.48326e-012 0)
(51.9235 -3.57045e-012 0)
(68.6169 3.54924e-013 0)
(85.5894 2.00515e-012 0)
(102.289 -4.41634e-013 0)
(118.682 -6.67744e-012 0)
(134.464 5.2969e-012 0)
(149.876 1.05728e-012 0)
(164.615 3.69356e-012 0)
(178.694 2.66316e-012 0)
(192.292 -1.91789e-012 0)
(205.035 1.66934e-011 0)
(217.062 -4.47347e-011 0)
(228.376 5.52484e-010 0)
(238.804 9.41876e-010 0)
(248.269 1.53517e-008 0)
(256.875 1.01362e-007 0)
(264.547 4.14277e-007 0)
(270.961 3.22666e-006 0)
(276.35 9.45793e-006 0)
(280.929 4.33163e-005 0)
(284.5 0.000122128 0)
(287.32 0.000324284 0)
(289.497 0.00074927 0)
(290.828 0.00133321 0)
(291.708 0.00237792 0)
(292.291 0.0039145 0)
(292.403 0.00637563 0)
(292.399 0.0139527 0)
(292.483 0.0210054 0)
(292.602 0.0313173 0)
(292.752 0.0407248 0)
(292.929 0.0496614 0)
(293.123 0.0553038 0)
(293.309 0.0655219 0)
(293.462 0.0735621 0)
(293.537 0.0856415 0)
(293.501 0.0979447 0)
(293.385 0.117118 0)
(293.23 0.139255 0)
(293.052 0.160266 0)
(292.858 0.183601 0)
(292.667 0.216255 0)
(292.518 0.248269 0)
(292.393 0.274618 0)
(292.272 0.310441 0)
(292.206 0.35558 0)
(292.16 0.369607 0)
(292.088 0.400905 0)
(0.000330964 7.28828e-013 0)
(0.00182618 -1.31776e-011 0)
(0.00789059 1.74955e-011 0)
(0.0317702 1.42614e-011 0)
(0.116434 2.4e-011 0)
(0.382941 -1.9058e-012 0)
(1.10964 -5.68584e-012 0)
(2.84045 -5.2344e-012 0)
(6.43838 -1.99101e-012 0)
(12.9152 -1.30311e-012 0)
(22.9403 5.31119e-012 0)
(36.2487 2.6699e-012 0)
(51.9235 3.06871e-014 0)
(68.6169 -1.43333e-013 0)
(85.5894 2.12832e-012 0)
(102.289 3.5413e-013 0)
(118.682 -3.11564e-012 0)
(134.464 2.05806e-012 0)
(149.876 -2.94568e-014 0)
(164.615 2.19229e-012 0)
(178.694 1.23157e-012 0)
(192.292 -2.736e-012 0)
(205.035 1.95719e-011 0)
(217.062 -4.82637e-011 0)
(228.376 5.81926e-010 0)
(238.804 9.63602e-010 0)
(248.269 1.62726e-008 0)
(256.875 1.06317e-007 0)
(264.547 4.40682e-007 0)
(270.961 3.41267e-006 0)
(276.35 1.01069e-005 0)
(280.929 4.60908e-005 0)
(284.5 0.000131581 0)
(287.32 0.000349587 0)
(289.497 0.000816676 0)
(290.828 0.00146281 0)
(291.708 0.00252958 0)
(292.291 0.00423311 0)
(292.403 0.0069993 0)
(292.4 0.0134093 0)
(292.484 0.0258366 0)
(292.603 0.0369285 0)
(292.753 0.0470247 0)
(292.93 0.054089 0)
(293.124 0.0600361 0)
(293.31 0.0680059 0)
(293.462 0.0734757 0)
(293.538 0.0892455 0)
(293.502 0.109558 0)
(293.386 0.130575 0)
(293.231 0.150429 0)
(293.054 0.173062 0)
(292.861 0.200906 0)
(292.671 0.237536 0)
(292.521 0.273382 0)
(292.397 0.303488 0)
(292.278 0.346203 0)
(292.209 0.396058 0)
(292.163 0.405035 0)
(292.092 0.44924 0)
(0.000330964 9.82483e-013 0)
(0.00182618 -1.05836e-011 0)
(0.00789059 1.82163e-011 0)
(0.0317702 1.45068e-011 0)
(0.116434 2.56367e-011 0)
(0.382941 -2.95013e-012 0)
(1.10964 -3.08847e-012 0)
(2.84045 -8.64989e-012 0)
(6.43838 -1.58854e-012 0)
(12.9152 -4.03294e-012 0)
(22.9403 1.05549e-012 0)
(36.2487 -3.02131e-012 0)
(51.9235 6.12796e-013 0)
(68.6169 2.76359e-012 0)
(85.5894 -1.45147e-012 0)
(102.289 -8.18715e-014 0)
(118.682 -3.31626e-012 0)
(134.464 8.89317e-012 0)
(149.876 9.27101e-013 0)
(164.615 1.80064e-012 0)
(178.694 1.20425e-012 0)
(192.292 -3.00639e-012 0)
(205.035 2.04608e-011 0)
(217.062 -5.0084e-011 0)
(228.376 6.08544e-010 0)
(238.804 9.75539e-010 0)
(248.269 1.70703e-008 0)
(256.875 1.10286e-007 0)
(264.547 4.63944e-007 0)
(270.961 3.57124e-006 0)
(276.35 1.06918e-005 0)
(280.929 4.85447e-005 0)
(284.5 0.000140387 0)
(287.32 0.000373173 0)
(289.497 0.000882211 0)
(290.828 0.00158772 0)
(291.708 0.00267864 0)
(292.291 0.00453497 0)
(292.404 0.00759532 0)
(292.401 0.0127248 0)
(292.485 0.0302568 0)
(292.604 0.0426996 0)
(292.754 0.0541561 0)
(292.93 0.0588514 0)
(293.124 0.0646506 0)
(293.31 0.068719 0)
(293.463 0.0721973 0)
(293.54 0.0898267 0)
(293.504 0.117635 0)
(293.388 0.143936 0)
(293.233 0.16633 0)
(293.056 0.19082 0)
(292.864 0.22158 0)
(292.675 0.259259 0)
(292.525 0.29712 0)
(292.401 0.330751 0)
(292.284 0.375669 0)
(292.213 0.425846 0)
(292.167 0.450588 0)
(292.099 0.495647 0)
(0.000330964 3.28459e-012 0)
(0.00182618 -1.10136e-011 0)
(0.00789059 1.81394e-011 0)
(0.0317702 1.46625e-011 0)
(0.116434 2.48705e-011 0)
(0.382941 -2.71792e-012 0)
(1.10964 -4.8838e-012 0)
(2.84045 -8.23983e-012 0)
(6.43838 -5.12101e-013 0)
(12.9152 -4.56e-012 0)
(22.9403 4.21146e-012 0)
(36.2487 1.53062e-012 0)
(51.9235 -4.13831e-013 0)
(68.6169 1.53599e-012 0)
(85.5894 7.9302e-013 0)
(102.289 3.29412e-012 0)
(118.682 -2.71191e-012 0)
(134.464 1.9188e-012 0)
(149.876 3.69005e-013 0)
(164.615 2.59982e-012 0)
(178.694 3.59843e-012 0)
(192.292 -2.22282e-012 0)
(205.035 2.01108e-011 0)
(217.062 -5.28153e-011 0)
(228.376 6.29198e-010 0)
(238.804 9.76209e-010 0)
(248.269 1.77491e-008 0)
(256.875 1.13341e-007 0)
(264.547 4.84211e-007 0)
(270.961 3.70391e-006 0)
(276.35 1.12152e-005 0)
(280.929 5.0694e-005 0)
(284.5 0.000148557 0)
(287.32 0.000395075 0)
(289.497 0.000945952 0)
(290.828 0.00170734 0)
(291.708 0.00282775 0)
(292.292 0.0048214 0)
(292.404 0.00813682 0)
(292.402 0.0122445 0)
(292.487 0.0335342 0)
(292.605 0.0490284 0)
(292.754 0.0622029 0)
(292.931 0.0666551 0)
(293.125 0.0715462 0)
(293.311 0.0626221 0)
(293.464 0.06877 0)
(293.541 0.0912171 0)
(293.506 0.11793 0)
(293.39 0.153562 0)
(293.235 0.181628 0)
(293.058 0.207502 0)
(292.867 0.239609 0)
(292.678 0.278815 0)
(292.528 0.321824 0)
(292.406 0.357862 0)
(292.289 0.403879 0)
(292.218 0.456925 0)
(292.172 0.493615 0)
(292.104 0.538917 0)
(0.000330964 1.97227e-012 0)
(0.00182618 -8.04813e-012 0)
(0.00789059 1.64105e-011 0)
(0.0317702 1.71215e-011 0)
(0.116434 2.37757e-011 0)
(0.382941 -5.47898e-012 0)
(1.10964 -5.7296e-012 0)
(2.84045 -8.25116e-012 0)
(6.43838 -4.60383e-012 0)
(12.9152 -5.81764e-012 0)
(22.9403 1.78133e-012 0)
(36.2487 1.79487e-012 0)
(51.9235 2.97827e-012 0)
(68.6169 2.10132e-012 0)
(85.5894 -1.32503e-012 0)
(102.289 -3.47849e-012 0)
(118.682 -2.09222e-012 0)
(134.464 4.35498e-012 0)
(149.876 6.63512e-014 0)
(164.615 1.52038e-012 0)
(178.694 1.07492e-012 0)
(192.292 -3.81914e-012 0)
(205.035 1.99292e-011 0)
(217.062 -5.31203e-011 0)
(228.376 6.49922e-010 0)
(238.804 9.67519e-010 0)
(248.269 1.83189e-008 0)
(256.875 1.15558e-007 0)
(264.547 5.01644e-007 0)
(270.961 3.81237e-006 0)
(276.35 1.16796e-005 0)
(280.929 5.2556e-005 0)
(284.5 0.000156105 0)
(287.32 0.000415351 0)
(289.497 0.00100788 0)
(290.828 0.00182168 0)
(291.708 0.00297741 0)
(292.292 0.00509741 0)
(292.404 0.0086072 0)
(292.403 0.0121239 0)
(292.488 0.0346372 0)
(292.606 0.0522289 0)
(292.755 0.0651357 0)
(292.931 0.0713224 0)
(293.124 0.0743491 0)
(293.31 0.0645497 0)
(293.465 0.0741491 0)
(293.543 0.0988485 0)
(293.509 0.117893 0)
(293.392 0.155819 0)
(293.237 0.193111 0)
(293.06 0.224892 0)
(292.87 0.256749 0)
(292.683 0.296406 0)
(292.532 0.34614 0)
(292.41 0.386447 0)
(292.295 0.427547 0)
(292.224 0.480456 0)
(292.178 0.539432 0)
(292.11 0.587795 0)
(0.000330964 4.17664e-012 0)
(0.00182618 -1.14739e-011 0)
(0.00789059 1.80166e-011 0)
(0.0317702 1.67044e-011 0)
(0.116434 2.2467e-011 0)
(0.382941 -6.54938e-012 0)
(1.10964 -5.08139e-012 0)
(2.84045 -7.98332e-012 0)
(6.43838 -2.01858e-012 0)
(12.9152 -5.86856e-012 0)
(22.9403 3.24809e-012 0)
(36.2487 5.80795e-012 0)
(51.9235 1.38339e-012 0)
(68.6169 -9.93231e-014 0)
(85.5894 4.63737e-012 0)
(102.289 -2.20328e-012 0)
(118.682 -1.97809e-012 0)
(134.464 -1.62262e-012 0)
(149.876 -6.98304e-013 0)
(164.615 2.31214e-012 0)
(178.694 1.75793e-012 0)
(192.292 -2.76044e-012 0)
(205.035 1.97285e-011 0)
(217.062 -5.35679e-011 0)
(228.376 6.64243e-010 0)
(238.804 9.49776e-010 0)
(248.269 1.87831e-008 0)
(256.875 1.17013e-007 0)
(264.547 5.1641e-007 0)
(270.961 3.89839e-006 0)
(276.35 1.2088e-005 0)
(280.929 5.4149e-005 0)
(284.5 0.000163049 0)
(287.32 0.000434059 0)
(289.497 0.00106802 0)
(290.828 0.00193048 0)
(291.709 0.00312873 0)
(292.292 0.00536658 0)
(292.404 0.00898849 0)
(292.404 0.0124941 0)
(292.49 0.0336919 0)
(292.608 0.05114 0)
(292.756 0.0632152 0)
(292.931 0.0702693 0)
(293.124 0.0739231 0)
(293.31 0.076263 0)
(293.467 0.0861739 0)
(293.545 0.10668 0)
(293.51 0.126575 0)
(293.395 0.160039 0)
(293.24 0.20211 0)
(293.062 0.240847 0)
(292.873 0.273 0)
(292.687 0.310012 0)
(292.537 0.366083 0)
(292.414 0.418752 0)
(292.3 0.4538 0)
(292.231 0.504634 0)
(292.185 0.587405 0)
(292.114 0.634111 0)
(0.000330964 3.57874e-012 0)
(0.00182618 -8.20915e-012 0)
(0.00789059 1.43367e-011 0)
(0.0317702 1.67509e-011 0)
(0.116434 2.13382e-011 0)
(0.382941 -9.87567e-012 0)
(1.10964 -4.56326e-012 0)
(2.84045 -8.40521e-012 0)
(6.43838 -5.4204e-012 0)
(12.9152 -7.00448e-012 0)
(22.9403 5.42303e-012 0)
(36.2487 2.55799e-012 0)
(51.9235 1.66461e-012 0)
(68.6169 1.02112e-012 0)
(85.5894 2.97816e-012 0)
(102.289 -2.59436e-012 0)
(118.682 -5.85662e-012 0)
(134.464 3.14605e-012 0)
(149.876 -1.51985e-012 0)
(164.615 -2.15999e-013 0)
(178.694 -1.62976e-012 0)
(192.292 -2.72336e-012 0)
(205.035 2.00358e-011 0)
(217.062 -5.57225e-011 0)
(228.376 6.73339e-010 0)
(238.804 9.26618e-010 0)
(248.269 1.91522e-008 0)
(256.875 1.17786e-007 0)
(264.547 5.28686e-007 0)
(270.961 3.96384e-006 0)
(276.35 1.24434e-005 0)
(280.929 5.54916e-005 0)
(284.5 0.000169411 0)
(287.32 0.000451258 0)
(289.497 0.00112638 0)
(290.828 0.00203364 0)
(291.709 0.00328204 0)
(292.292 0.00563452 0)
(292.405 0.00930821 0)
(292.404 0.0132874 0)
(292.491 0.0316571 0)
(292.609 0.0484715 0)
(292.756 0.0616511 0)
(292.932 0.0701635 0)
(293.124 0.0773546 0)
(293.311 0.0830006 0)
(293.467 0.0931823 0)
(293.546 0.110527 0)
(293.512 0.137971 0)
(293.398 0.168819 0)
(293.243 0.208591 0)
(293.065 0.250362 0)
(292.876 0.287997 0)
(292.691 0.325704 0)
(292.543 0.38463 0)
(292.419 0.451243 0)
(292.304 0.486208 0)
(292.239 0.540445 0)
(292.193 0.630306 0)
(292.12 0.677484 0)
(0.000330964 4.13729e-012 0)
(0.00182618 -1.15279e-011 0)
(0.00789059 1.41426e-011 0)
(0.0317702 1.39948e-011 0)
(0.116434 2.08643e-011 0)
(0.382941 -8.77808e-012 0)
(1.10964 -4.81765e-012 0)
(2.84045 -7.45407e-012 0)
(6.43838 -3.32411e-012 0)
(12.9152 -7.48656e-012 0)
(22.9403 6.0532e-012 0)
(36.2487 5.05223e-012 0)
(51.9235 2.98621e-012 0)
(68.6169 -2.22258e-012 0)
(85.5894 4.23043e-012 0)
(102.289 -5.32442e-012 0)
(118.682 -1.3111e-012 0)
(134.464 -4.05044e-012 0)
(149.876 -4.90808e-013 0)
(164.615 -6.92949e-014 0)
(178.694 3.0557e-012 0)
(192.292 -2.04631e-012 0)
(205.035 2.11128e-011 0)
(217.062 -5.59536e-011 0)
(228.376 6.80842e-010 0)
(238.804 8.96427e-010 0)
(248.269 1.9434e-008 0)
(256.875 1.1795e-007 0)
(264.547 5.3865e-007 0)
(270.961 4.01053e-006 0)
(276.35 1.27489e-005 0)
(280.929 5.66026e-005 0)
(284.5 0.000175213 0)
(287.32 0.000467025 0)
(289.497 0.00118288 0)
(290.828 0.00213145 0)
(291.709 0.00343732 0)
(292.292 0.00590225 0)
(292.405 0.00962679 0)
(292.405 0.0143092 0)
(292.493 0.0291096 0)
(292.61 0.0452382 0)
(292.757 0.0594616 0)
(292.932 0.0707028 0)
(293.125 0.0818368 0)
(293.311 0.0902787 0)
(293.468 0.0998358 0)
(293.548 0.115096 0)
(293.514 0.147287 0)
(293.4 0.177035 0)
(293.245 0.212377 0)
(293.068 0.258674 0)
(292.879 0.305668 0)
(292.695 0.348563 0)
(292.549 0.406368 0)
(292.424 0.475772 0)
(292.309 0.513159 0)
(292.247 0.578072 0)
(292.2 0.677735 0)
(292.125 0.707318 0)
(0.000330964 4.07877e-012 0)
(0.00182618 -7.33525e-012 0)
(0.00789059 1.00348e-011 0)
(0.0317702 1.37153e-011 0)
(0.116434 2.04905e-011 0)
(0.382941 -1.02153e-011 0)
(1.10964 -3.34543e-012 0)
(2.84045 -8.22893e-012 0)
(6.43838 -3.98533e-012 0)
(12.9152 -6.48414e-012 0)
(22.9403 7.00677e-012 0)
(36.2487 1.43946e-012 0)
(51.9235 5.16059e-012 0)
(68.6169 9.96944e-013 0)
(85.5894 3.15893e-013 0)
(102.289 -5.9295e-012 0)
(118.682 -3.63478e-012 0)
(134.464 1.24767e-012 0)
(149.876 -1.8691e-012 0)
(164.615 -2.72282e-012 0)
(178.694 2.54705e-013 0)
(192.292 -2.47762e-012 0)
(205.035 2.18359e-011 0)
(217.062 -5.67472e-011 0)
(228.376 6.85097e-010 0)
(238.804 8.62579e-010 0)
(248.269 1.96371e-008 0)
(256.875 1.17585e-007 0)
(264.547 5.46483e-007 0)
(270.961 4.04028e-006 0)
(276.35 1.30077e-005 0)
(280.929 5.75009e-005 0)
(284.5 0.000180475 0)
(287.32 0.00048144 0)
(289.497 0.00123746 0)
(290.828 0.0022242 0)
(291.709 0.00359442 0)
(292.293 0.0061675 0)
(292.405 0.00998242 0)
(292.406 0.0154954 0)
(292.494 0.0269488 0)
(292.611 0.042347 0)
(292.758 0.058035 0)
(292.933 0.0714275 0)
(293.126 0.0853372 0)
(293.312 0.0976116 0)
(293.469 0.106756 0)
(293.549 0.12163 0)
(293.516 0.154491 0)
(293.402 0.183077 0)
(293.248 0.21741 0)
(293.072 0.267255 0)
(292.883 0.322739 0)
(292.7 0.370049 0)
(292.555 0.427606 0)
(292.429 0.490588 0)
(292.314 0.532446 0)
(292.257 0.611736 0)
(292.207 0.720495 0)
(292.129 0.739641 0)
(0.000330964 3.07795e-012 0)
(0.00182618 -1.04082e-011 0)
(0.00789059 1.16087e-011 0)
(0.0317702 1.04988e-011 0)
(0.116434 1.97563e-011 0)
(0.382941 -9.01371e-012 0)
(1.10964 -3.80539e-012 0)
(2.84045 -6.15667e-012 0)
(6.43838 -2.4032e-012 0)
(12.9152 -7.47849e-012 0)
(22.9403 4.29125e-012 0)
(36.2487 6.00282e-012 0)
(51.9235 2.25787e-012 0)
(68.6169 3.16694e-013 0)
(85.5894 2.77425e-012 0)
(102.289 -1.87928e-012 0)
(118.682 -7.27865e-012 0)
(134.464 -1.59228e-012 0)
(149.876 -1.0099e-012 0)
(164.615 -5.71925e-013 0)
(178.694 2.24541e-012 0)
(192.292 -3.53007e-012 0)
(205.035 2.13333e-011 0)
(217.062 -5.60591e-011 0)
(228.376 6.86932e-010 0)
(238.804 8.25216e-010 0)
(248.269 1.97661e-008 0)
(256.875 1.16759e-007 0)
(264.547 5.52357e-007 0)
(270.961 4.05485e-006 0)
(276.35 1.32229e-005 0)
(280.929 5.82046e-005 0)
(284.5 0.000185223 0)
(287.32 0.000494574 0)
(289.497 0.00129011 0)
(290.828 0.00231206 0)
(291.709 0.00375295 0)
(292.293 0.00643116 0)
(292.406 0.0103651 0)
(292.406 0.0168371 0)
(292.494 0.0262746 0)
(292.612 0.0409576 0)
(292.759 0.05968 0)
(292.934 0.0738957 0)
(293.127 0.086277 0)
(293.313 0.105937 0)
(293.47 0.11445 0)
(293.55 0.128818 0)
(293.518 0.157579 0)
(293.404 0.187563 0)
(293.251 0.229496 0)
(293.076 0.275659 0)
(292.887 0.329056 0)
(292.704 0.378689 0)
(292.56 0.44103 0)
(292.434 0.50763 0)
(292.321 0.557558 0)
(292.267 0.647382 0)
(292.214 0.751842 0)
(292.134 0.78908 0)
(0.000330964 3.70772e-012 0)
(0.00182618 -5.41691e-012 0)
(0.00789059 8.16917e-012 0)
(0.0317702 8.68145e-012 0)
(0.116434 2.06693e-011 0)
(0.382941 -1.00629e-011 0)
(1.10964 -3.11335e-012 0)
(2.84045 -7.27627e-012 0)
(6.43838 1.07783e-013 0)
(12.9152 -6.54589e-012 0)
(22.9403 6.86043e-012 0)
(36.2487 3.1418e-012 0)
(51.9235 4.17806e-012 0)
(68.6169 -2.42643e-012 0)
(85.5894 5.61486e-012 0)
(102.289 -6.97191e-012 0)
(118.682 -4.50505e-012 0)
(134.464 -1.38812e-013 0)
(149.876 -2.90028e-012 0)
(164.615 -2.7308e-012 0)
(178.694 -2.36917e-014 0)
(192.292 -2.75124e-012 0)
(205.035 2.09098e-011 0)
(217.062 -5.62997e-011 0)
(228.376 6.86338e-010 0)
(238.804 7.87519e-010 0)
(248.269 1.98314e-008 0)
(256.875 1.15536e-007 0)
(264.547 5.56446e-007 0)
(270.961 4.05591e-006 0)
(276.35 1.33977e-005 0)
(280.929 5.87313e-005 0)
(284.5 0.000189482 0)
(287.32 0.000506506 0)
(289.497 0.00134078 0)
(290.829 0.00239558 0)
(291.709 0.00391148 0)
(292.293 0.00669313 0)
(292.406 0.0107467 0)
(292.407 0.0182282 0)
(292.495 0.0274911 0)
(292.613 0.0425002 0)
(292.761 0.0632218 0)
(292.935 0.0786808 0)
(293.128 0.0876934 0)
(293.314 0.109038 0)
(293.47 0.120403 0)
(293.551 0.135381 0)
(293.519 0.159789 0)
(293.406 0.194831 0)
(293.254 0.242172 0)
(293.079 0.283376 0)
(292.89 0.326681 0)
(292.708 0.377498 0)
(292.566 0.453514 0)
(292.439 0.539219 0)
(292.328 0.590413 0)
(292.276 0.683979 0)
(292.222 0.77857 0)
(292.14 0.838593 0)
(0.000330964 2.21137e-012 0)
(0.00182618 -7.30857e-012 0)
(0.00789059 8.98307e-012 0)
(0.0317702 6.97683e-012 0)
(0.116434 1.92039e-011 0)
(0.382941 -1.08568e-011 0)
(1.10964 -3.58364e-012 0)
(2.84045 -7.86872e-012 0)
(6.43838 -1.34394e-013 0)
(12.9152 -6.19854e-012 0)
(22.9403 4.91461e-012 0)