/*--------------------------------*- C++ -*----------------------------------*\
| =========                 |                                                 |
| \\      /  F ield         | OpenFOAM: The Open Source CFD Toolbox           |
|  \\    /   O peration     | Version:  5.x                                   |
|   \\  /    A nd           | Web:      www.OpenFOAM.org                      |
|    \\/     M anipulation  |                                                 |
\*---------------------------------------------------------------------------*/
/*   Windows 32 and 64 bit porting by blueCAPE: http://www.bluecape.com.pt   *\
|  Based on Windows porting (2.0.x v4) by Symscape: http://www.symscape.com   |
\*---------------------------------------------------------------------------*/
FoamFile
{
    version     2.0;
    format      ascii;
    class       volVectorField;
    location    "0.007";
    object      U_0;
}
// * * * * * * * * * * * * * * * * * * * * * * * * * * * * * * * * * * * * * //

dimensions      [0 1 -1 0 0 0 0];

internalField   nonuniform List<vector> 
10000
(
(0.000329855 -9.50889e-013 0)
(0.00182038 -2.59725e-014 0)
(0.00786708 -2.4187e-013 0)
(0.0316823 9.51801e-013 0)
(0.116137 4.27902e-013 0)
(0.382071 6.6601e-013 0)
(1.10742 1.96226e-012 0)
(2.83554 1.32542e-012 0)
(6.4289 1.7764e-012 0)
(12.8996 5.12421e-013 0)
(22.9182 -2.19987e-012 0)
(36.222 1.85183e-012 0)
(51.8947 -1.76608e-012 0)
(68.5883 3.17155e-013 0)
(85.5622 -1.28756e-012 0)
(102.263 -2.31239e-012 0)
(118.659 -5.19562e-012 0)
(134.443 8.46158e-012 0)
(149.857 -3.12451e-013 0)
(164.598 6.19666e-013 0)
(178.679 6.80522e-013 0)
(192.279 -7.00117e-013 0)
(205.024 2.72307e-012 0)
(217.053 -1.92286e-012 0)
(228.369 4.01506e-011 0)
(238.798 7.79419e-011 0)
(248.264 1.05931e-009 0)
(256.872 7.3688e-009 0)
(264.545 2.79679e-008 0)
(270.96 2.25254e-007 0)
(276.35 6.2441e-007 0)
(280.929 2.9394e-006 0)
(284.501 7.72015e-006 0)
(287.321 2.04259e-005 0)
(289.497 4.47467e-005 0)
(290.828 7.03388e-005 0)
(291.708 0.00019244 0)
(292.29 0.000254497 0)
(292.399 0.000399348 0)
(292.395 0.00110896 0)
(292.48 0.00126461 0)
(292.599 0.00180925 0)
(292.75 0.00145772 0)
(292.925 0.00130252 0)
(293.118 0.00187525 0)
(293.306 0.00276967 0)
(293.459 0.00280053 0)
(293.532 0.00382041 0)
(293.493 0.00624076 0)
(293.375 0.00737004 0)
(293.217 0.00703339 0)
(293.037 0.0101295 0)
(292.844 0.0114138 0)
(292.653 0.0134376 0)
(292.5 0.0152659 0)
(292.374 0.0154785 0)
(292.254 0.0187145 0)
(292.186 0.0219646 0)
(292.14 0.0211974 0)
(292.073 0.0207076 0)
(0.000329855 -3.98427e-012 0)
(0.00182038 -4.48937e-012 0)
(0.00786708 4.47507e-012 0)
(0.0316823 3.81564e-012 0)
(0.116137 4.62161e-012 0)
(0.382071 -5.58089e-013 0)
(1.10742 -2.17288e-012 0)
(2.83554 2.59021e-012 0)
(6.4289 3.04054e-013 0)
(12.8996 -3.44092e-013 0)
(22.9182 5.09649e-012 0)
(36.222 -2.65315e-013 0)
(51.8947 2.72779e-012 0)
(68.5883 -2.02189e-012 0)
(85.5622 -9.551e-014 0)
(102.263 1.74788e-012 0)
(118.659 -1.9926e-012 0)
(134.443 -6.18923e-012 0)
(149.857 -3.99714e-012 0)
(164.598 6.91107e-013 0)
(178.679 2.16117e-012 0)
(192.279 2.61902e-012 0)
(205.024 5.61846e-012 0)
(217.053 -5.9931e-012 0)
(228.369 1.1506e-010 0)
(238.798 2.24223e-010 0)
(248.264 3.12517e-009 0)
(256.872 2.17489e-008 0)
(264.545 8.27746e-008 0)
(270.96 6.6579e-007 0)
(276.35 1.84894e-006 0)
(280.929 8.69562e-006 0)
(284.501 2.28828e-005 0)
(287.321 6.05917e-005 0)
(289.497 0.00013265 0)
(290.828 0.000211538 0)
(291.708 0.0005602 0)
(292.29 0.000747893 0)
(292.399 0.00122049 0)
(292.395 0.00334265 0)
(292.48 0.00322554 0)
(292.599 0.0062056 0)
(292.75 0.00590441 0)
(292.926 0.00479491 0)
(293.119 0.00670443 0)
(293.306 0.00981458 0)
(293.459 0.00928385 0)
(293.532 0.0121707 0)
(293.494 0.0174266 0)
(293.375 0.0214671 0)
(293.218 0.0248007 0)
(293.038 0.0317497 0)
(292.845 0.0356271 0)
(292.654 0.0391589 0)
(292.5 0.0436237 0)
(292.375 0.0453689 0)
(292.256 0.0514596 0)
(292.186 0.05759 0)
(292.14 0.0562958 0)
(292.073 0.0621969 0)
(0.000329855 -2.65447e-012 0)
(0.00182038 -2.25491e-012 0)
(0.00786708 6.57614e-012 0)
(0.0316823 7.92919e-012 0)
(0.116137 2.98769e-012 0)
(0.382071 -9.87636e-013 0)
(1.10742 1.0683e-012 0)
(2.83554 6.83159e-013 0)
(6.4289 3.62222e-012 0)
(12.8996 -1.9934e-012 0)
(22.9182 3.98769e-012 0)
(36.222 4.80826e-012 0)
(51.8947 -1.40323e-012 0)
(68.5883 2.92389e-013 0)
(85.5622 1.39101e-012 0)
(102.263 -3.87757e-012 0)
(118.659 -6.01191e-012 0)
(134.443 8.95939e-012 0)
(149.857 -1.7187e-012 0)
(164.598 -2.54857e-012 0)
(178.679 7.82564e-013 0)
(192.279 -1.49702e-012 0)
(205.024 8.28371e-012 0)
(217.053 -1.07715e-011 0)
(228.369 1.88453e-010 0)
(238.798 3.64539e-010 0)
(248.264 5.09855e-009 0)
(256.872 3.53456e-008 0)
(264.545 1.35121e-007 0)
(270.96 1.08433e-006 0)
(276.35 3.02125e-006 0)
(280.929 1.4185e-005 0)
(284.501 3.74781e-005 0)
(287.321 9.92868e-005 0)
(289.497 0.000217863 0)
(290.828 0.00035254 0)
(291.708 0.000894352 0)
(292.29 0.00121216 0)
(292.399 0.00204556 0)
(292.395 0.00536691 0)
(292.48 0.00643012 0)
(292.599 0.0130189 0)
(292.75 0.0107878 0)
(292.926 0.00789493 0)
(293.119 0.0136832 0)
(293.306 0.0191913 0)
(293.459 0.0169578 0)
(293.533 0.020556 0)
(293.494 0.0261902 0)
(293.376 0.0333124 0)
(293.219 0.0426936 0)
(293.039 0.0507776 0)
(292.845 0.0574519 0)
(292.654 0.0622256 0)
(292.501 0.0703434 0)
(292.375 0.0807384 0)
(292.256 0.0864062 0)
(292.187 0.0933463 0)
(292.141 0.100968 0)
(292.075 0.100935 0)
(0.000329855 -5.37747e-012 0)
(0.00182038 -4.27596e-012 0)
(0.00786708 1.02026e-011 0)
(0.0316823 4.07354e-012 0)
(0.116137 5.80357e-012 0)
(0.382071 1.99862e-012 0)
(1.10742 -1.43456e-012 0)
(2.83554 -1.3826e-013 0)
(6.4289 1.75357e-012 0)
(12.8996 2.27431e-012 0)
(22.9182 4.63114e-012 0)
(36.222 3.65556e-012 0)
(51.8947 1.19427e-013 0)
(68.5883 -1.67716e-012 0)
(85.5622 -3.87576e-013 0)
(102.263 1.32609e-012 0)
(118.659 -6.1443e-012 0)
(134.443 -1.5057e-012 0)
(149.857 -3.07588e-013 0)
(164.598 -3.5869e-013 0)
(178.679 3.05243e-012 0)
(192.279 -1.11106e-012 0)
(205.024 8.24401e-012 0)
(217.053 -1.75684e-011 0)
(228.369 2.5568e-010 0)
(238.798 4.90154e-010 0)
(248.264 6.95411e-009 0)
(256.872 4.8e-008 0)
(264.545 1.84624e-007 0)
(270.96 1.47736e-006 0)
(276.35 4.13506e-006 0)
(280.929 1.93709e-005 0)
(284.501 5.14776e-005 0)
(287.321 0.000136414 0)
(289.497 0.000300678 0)
(290.828 0.00049372 0)
(291.708 0.00119155 0)
(292.29 0.00165438 0)
(292.4 0.0027957 0)
(292.396 0.00708022 0)
(292.481 0.0130649 0)
(292.599 0.0201497 0)
(292.749 0.0202198 0)
(292.926 0.018185 0)
(293.12 0.0223432 0)
(293.306 0.0172011 0)
(293.459 0.0164559 0)
(293.533 0.0256219 0)
(293.495 0.0351127 0)
(293.377 0.0470193 0)
(293.22 0.0599485 0)
(293.039 0.0715006 0)
(292.846 0.0806174 0)
(292.655 0.0865979 0)
(292.503 0.0982877 0)
(292.377 0.114827 0)
(292.257 0.118648 0)
(292.188 0.127035 0)
(292.141 0.143713 0)
(292.072 0.139742 0)
(0.000329855 -4.33763e-012 0)
(0.00182038 -2.62255e-012 0)
(0.00786708 1.15315e-011 0)
(0.0316823 1.10536e-011 0)
(0.116137 8.82042e-012 0)
(0.382071 -1.9098e-012 0)
(1.10742 6.88672e-014 0)
(2.83554 1.06382e-013 0)
(6.4289 2.92102e-012 0)
(12.8996 6.14654e-013 0)
(22.9182 2.592e-012 0)
(36.222 2.31749e-012 0)
(51.8947 -4.90445e-013 0)
(68.5883 2.32127e-012 0)
(85.5622 2.29229e-012 0)
(102.263 -6.82242e-012 0)
(118.659 -6.17393e-012 0)
(134.443 4.27747e-012 0)
(149.857 -2.8342e-012 0)
(164.598 1.47047e-012 0)
(178.679 7.17413e-014 0)
(192.279 -1.83552e-012 0)
(205.024 1.16243e-011 0)
(217.053 -2.25691e-011 0)
(228.369 3.18924e-010 0)
(238.798 6.01737e-010 0)
(248.264 8.68453e-009 0)
(256.872 5.96087e-008 0)
(264.545 2.31027e-007 0)
(270.96 1.8424e-006 0)
(276.35 5.18586e-006 0)
(280.929 2.4228e-005 0)
(284.501 6.48548e-005 0)
(287.321 0.000171944 0)
(289.497 0.00038099 0)
(290.828 0.000636427 0)
(291.708 0.00144958 0)
(292.29 0.00207957 0)
(292.4 0.00345008 0)
(292.396 0.00861643 0)
(292.482 0.0167936 0)
(292.6 0.0208798 0)
(292.749 0.0245265 0)
(292.926 0.0260941 0)
(293.119 0.0290659 0)
(293.305 0.0232622 0)
(293.46 0.0254372 0)
(293.535 0.0345176 0)
(293.497 0.0461471 0)
(293.378 0.0607215 0)
(293.221 0.0754119 0)
(293.041 0.0906579 0)
(292.846 0.105181 0)
(292.656 0.113527 0)
(292.505 0.126139 0)
(292.378 0.142099 0)
(292.258 0.147982 0)
(292.191 0.16051 0)
(292.143 0.181715 0)
(292.074 0.18337 0)
(0.000329855 -5.37339e-012 0)
(0.00182038 -4.1676e-012 0)
(0.00786708 1.38157e-011 0)
(0.0316823 8.24652e-012 0)
(0.116137 1.31165e-011 0)
(0.382071 2.30122e-012 0)
(1.10742 -6.95565e-013 0)
(2.83554 -3.86345e-012 0)
(6.4289 2.56947e-012 0)
(12.8996 -1.64546e-012 0)
(22.9182 -1.39939e-014 0)
(36.222 2.94484e-012 0)
(51.8947 -1.29262e-012 0)
(68.5883 3.05302e-012 0)
(85.5622 -2.4686e-013 0)
(102.263 -1.16143e-013 0)
(118.659 -2.97297e-012 0)
(134.443 -2.32257e-013 0)
(149.857 -4.68138e-012 0)
(164.598 1.46806e-012 0)
(178.679 -7.123e-014 0)
(192.279 -3.75491e-012 0)
(205.024 1.44325e-011 0)
(217.053 -2.76224e-011 0)
(228.369 3.75843e-010 0)
(238.798 6.97007e-010 0)
(248.264 1.02805e-008 0)
(256.872 7.01005e-008 0)
(264.545 2.74143e-007 0)
(270.96 2.17781e-006 0)
(276.35 6.17058e-006 0)
(280.929 2.87397e-005 0)
(284.501 7.75924e-005 0)
(287.321 0.000205815 0)
(289.497 0.000459045 0)
(290.828 0.000779117 0)
(291.708 0.00167546 0)
(292.29 0.00248502 0)
(292.4 0.00404062 0)
(292.397 0.0102845 0)
(292.482 0.0153923 0)
(292.6 0.0178238 0)
(292.75 0.0208223 0)
(292.926 0.0248295 0)
(293.12 0.0320021 0)
(293.306 0.0411315 0)
(293.46 0.0459789 0)
(293.535 0.050042 0)
(293.498 0.0640872 0)
(293.38 0.0739623 0)
(293.223 0.0866596 0)
(293.043 0.105909 0)
(292.848 0.12733 0)
(292.658 0.137199 0)
(292.507 0.150601 0)
(292.38 0.170728 0)
(292.26 0.181303 0)
(292.194 0.195669 0)
(292.145 0.219784 0)
(292.074 0.225476 0)
(0.000329855 -2.96941e-012 0)
(0.00182038 -5.6991e-012 0)
(0.00786708 1.50356e-011 0)
(0.0316823 1.2033e-011 0)
(0.116137 1.28303e-011 0)
(0.382071 -7.11958e-013 0)
(1.10742 -3.02425e-012 0)
(2.83554 -3.92698e-012 0)
(6.4289 -1.72269e-012 0)
(12.8996 2.17006e-013 0)
(22.9182 6.51395e-013 0)
(36.222 6.03384e-012 0)
(51.8947 -2.05085e-012 0)
(68.5883 5.22854e-012 0)
(85.5622 -2.57817e-012 0)
(102.263 1.64157e-012 0)
(118.659 -5.36865e-012 0)
(134.443 -4.38909e-014 0)
(149.857 -2.19064e-012 0)
(164.598 -7.95975e-013 0)
(178.679 -8.83177e-013 0)
(192.279 -1.41299e-012 0)
(205.024 1.3452e-011 0)
(217.053 -3.21383e-011 0)
(228.369 4.27345e-010 0)
(238.798 7.78868e-010 0)
(248.264 1.1738e-008 0)
(256.872 7.94461e-008 0)
(264.545 3.1387e-007 0)
(270.96 2.48269e-006 0)
(276.35 7.08744e-006 0)
(280.929 3.28974e-005 0)
(284.501 8.96747e-005 0)
(287.321 0.000238009 0)
(289.497 0.000534816 0)
(290.828 0.000921074 0)
(291.708 0.0018754 0)
(292.29 0.00286743 0)
(292.401 0.00459874 0)
(292.397 0.0120659 0)
(292.482 0.0137455 0)
(292.601 0.0166109 0)
(292.75 0.0203922 0)
(292.927 0.0255631 0)
(293.121 0.0368326 0)
(293.307 0.0545579 0)
(293.46 0.0612994 0)
(293.536 0.0643714 0)
(293.499 0.0767058 0)
(293.38 0.0853077 0)
(293.224 0.0986129 0)
(293.045 0.119833 0)
(292.849 0.143767 0)
(292.659 0.156903 0)
(292.509 0.173517 0)
(292.382 0.199161 0)
(292.261 0.212661 0)
(292.196 0.228809 0)
(292.148 0.256954 0)
(292.076 0.270911 0)
(0.000329855 -2.26357e-012 0)
(0.00182038 -9.58497e-012 0)
(0.00786708 1.6621e-011 0)
(0.0316823 8.43773e-012 0)
(0.116137 1.77335e-011 0)
(0.382071 9.7444e-013 0)
(1.10742 -1.52701e-012 0)
(2.83554 -5.62003e-012 0)
(6.4289 -2.15005e-012 0)
(12.8996 -2.78714e-012 0)
(22.9182 1.69543e-012 0)
(36.222 1.11875e-012 0)
(51.8947 -2.90935e-012 0)
(68.5883 3.04261e-012 0)
(85.5622 -2.548e-013 0)
(102.263 -1.14606e-012 0)
(118.659 -2.32047e-012 0)
(134.443 2.0126e-012 0)
(149.857 -1.29845e-012 0)
(164.598 2.8026e-012 0)
(178.679 -1.70319e-013 0)
(192.279 -2.69421e-012 0)
(205.024 1.73518e-011 0)
(217.053 -3.5483e-011 0)
(228.369 4.74194e-010 0)
(238.798 8.42005e-010 0)
(248.264 1.30563e-008 0)
(256.872 8.76384e-008 0)
(264.545 3.50169e-007 0)
(270.96 2.75679e-006 0)
(276.35 7.93573e-006 0)
(280.929 3.66988e-005 0)
(284.501 0.000101094 0)
(287.321 0.0002685 0)
(289.497 0.000608353 0)
(290.828 0.00106121 0)
(291.709 0.00205592 0)
(292.291 0.00322903 0)
(292.401 0.00516615 0)
(292.398 0.0133505 0)
(292.482 0.0137252 0)
(292.601 0.019579 0)
(292.751 0.0252109 0)
(292.928 0.0346543 0)
(293.123 0.0447201 0)
(293.308 0.0607033 0)
(293.461 0.0701791 0)
(293.536 0.0741902 0)
(293.499 0.0799597 0)
(293.381 0.0932936 0)
(293.226 0.113098 0)
(293.047 0.132662 0)
(292.852 0.155619 0)
(292.661 0.177736 0)
(292.512 0.198775 0)
(292.385 0.226215 0)
(292.264 0.245037 0)
(292.2 0.26753 0)
(292.151 0.296768 0)
(292.078 0.317152 0)
(0.000329855 -1.8237e-012 0)
(0.00182038 -1.03159e-011 0)
(0.00786708 1.53487e-011 0)
(0.0316823 1.13018e-011 0)
(0.116137 2.00656e-011 0)
(0.382071 7.45616e-013 0)
(1.10742 -4.96749e-012 0)
(2.83554 -3.03106e-012 0)
(6.4289 -3.10029e-012 0)
(12.8996 -3.5646e-013 0)
(22.9182 4.71719e-012 0)
(36.222 8.62798e-013 0)
(51.8947 3.38637e-012 0)
(68.5883 3.23763e-012 0)
(85.5622 -9.63835e-014 0)
(102.263 1.26707e-012 0)
(118.659 -4.64375e-012 0)
(134.443 1.03034e-012 0)
(149.857 -4.43593e-012 0)
(164.598 1.90424e-012 0)
(178.679 -3.21792e-012 0)
(192.279 -1.39622e-012 0)
(205.024 1.62766e-011 0)
(217.053 -4.2114e-011 0)
(228.369 5.14434e-010 0)
(238.798 8.90324e-010 0)
(248.264 1.42386e-008 0)
(256.872 9.4697e-008 0)
(264.545 3.83058e-007 0)
(270.96 3.00042e-006 0)
(276.35 8.71567e-006 0)
(280.929 4.0147e-005 0)
(284.501 0.000111849 0)
(287.321 0.000297266 0)
(289.497 0.000679741 0)
(290.828 0.00119852 0)
(291.709 0.00222242 0)
(292.291 0.00357764 0)
(292.402 0.00575945 0)
(292.398 0.0139547 0)
(292.483 0.0164579 0)
(292.602 0.0256119 0)
(292.752 0.0339422 0)
(292.929 0.0453886 0)
(293.123 0.0506877 0)
(293.309 0.0608368 0)
(293.461 0.071874 0)
(293.536 0.080314 0)
(293.5 0.0872232 0)
(293.383 0.103645 0)
(293.227 0.127973 0)
(293.049 0.148015 0)
(292.854 0.170007 0)
(292.663 0.198722 0)
(292.515 0.224541 0)
(292.388 0.249643 0)
(292.267 0.274943 0)
(292.204 0.307185 0)
(292.155 0.332362 0)
(292.081 0.360036 0)
(0.000329855 -1.0292e-012 0)
(0.00182038 -1.04198e-011 0)
(0.00786708 1.82897e-011 0)
(0.0316823 1.20126e-011 0)
(0.116137 2.34601e-011 0)
(0.382071 -4.33137e-013 0)
(1.10742 -5.11762e-012 0)
(2.83554 -4.82167e-012 0)
(6.4289 -3.38535e-012 0)
(12.8996 -1.42611e-012 0)
(22.9182 -8.90941e-013 0)
(36.222 2.49208e-012 0)
(51.8947 -3.48859e-012 0)
(68.5883 3.9616e-013 0)
(85.5622 2.02445e-012 0)
(102.263 -4.0442e-013 0)
(118.659 -6.68403e-012 0)
(134.443 5.27518e-012 0)
(149.857 1.05363e-012 0)
(164.598 3.72815e-012 0)
(178.679 2.64814e-012 0)
(192.279 -1.93877e-012 0)
(205.024 1.65727e-011 0)
(217.053 -4.46714e-011 0)
(228.369 5.49757e-010 0)
(238.798 9.26179e-010 0)
(248.264 1.52852e-008 0)
(256.872 1.00658e-007 0)
(264.545 4.12597e-007 0)
(270.96 3.21427e-006 0)
(276.35 9.42819e-006 0)
(280.929 4.32495e-005 0)
(284.501 0.000121941 0)
(287.321 0.000324296 0)
(289.497 0.000749041 0)
(290.828 0.00133246 0)
(291.709 0.00237927 0)
(292.291 0.00391283 0)
(292.402 0.0063715 0)
(292.399 0.0139488 0)
(292.484 0.0210174 0)
(292.603 0.0312627 0)
(292.753 0.0407932 0)
(292.93 0.049736 0)
(293.124 0.055256 0)
(293.31 0.0655803 0)
(293.462 0.0735938 0)
(293.537 0.0856313 0)
(293.501 0.0981263 0)
(293.385 0.117254 0)
(293.229 0.13907 0)
(293.051 0.160071 0)
(292.857 0.183807 0)
(292.667 0.217109 0)
(292.518 0.248396 0)
(292.391 0.273838 0)
(292.271 0.309572 0)
(292.208 0.3563 0)
(292.159 0.368493 0)
(292.085 0.40088 0)
(0.000329855 6.08591e-013 0)
(0.00182038 -1.31031e-011 0)
(0.00786708 1.75435e-011 0)
(0.0316823 1.42495e-011 0)
(0.116137 2.40306e-011 0)
(0.382071 -1.98778e-012 0)
(1.10742 -5.71981e-012 0)
(2.83554 -5.22073e-012 0)
(6.4289 -2.06854e-012 0)
(12.8996 -1.30046e-012 0)
(22.9182 5.34709e-012 0)
(36.222 2.70501e-012 0)
(51.8947 8.1593e-014 0)
(68.5883 -1.07664e-013 0)
(85.5622 2.15788e-012 0)
(102.263 3.85487e-013 0)
(118.659 -3.1263e-012 0)
(134.443 2.04551e-012 0)
(149.857 -3.02283e-014 0)
(164.598 2.16587e-012 0)
(178.679 1.18825e-012 0)
(192.279 -2.74624e-012 0)
(205.024 1.94553e-011 0)
(217.053 -4.81852e-011 0)
(228.369 5.79001e-010 0)
(238.798 9.47116e-010 0)
(248.264 1.62015e-008 0)
(256.872 1.05573e-007 0)
(264.545 4.38879e-007 0)
(270.96 3.39943e-006 0)
(276.35 1.00748e-005 0)
(280.929 4.60174e-005 0)
(284.501 0.000131377 0)
(287.321 0.000349579 0)
(289.497 0.000816421 0)
(290.828 0.00146211 0)
(291.709 0.00253088 0)
(292.291 0.00423101 0)
(292.402 0.00699385 0)
(292.399 0.0134148 0)
(292.484 0.0258169 0)
(292.603 0.0369577 0)
(292.753 0.0469803 0)
(292.93 0.0540424 0)
(293.125 0.0600746 0)
(293.311 0.0678999 0)
(293.463 0.073646 0)
(293.538 0.0894424 0)
(293.502 0.109543 0)
(293.386 0.130651 0)
(293.231 0.150105 0)
(293.053 0.17309 0)
(292.86 0.201221 0)
(292.67 0.238069 0)
(292.521 0.273168 0)
(292.395 0.302537 0)
(292.277 0.345838 0)
(292.211 0.396772 0)
(292.161 0.403728 0)
(292.089 0.44967 0)
(0.000329855 8.58136e-013 0)
(0.00182038 -1.05542e-011 0)
(0.00786708 1.83014e-011 0)
(0.0316823 1.45215e-011 0)
(0.116137 2.56792e-011 0)
(0.382071 -3.05391e-012 0)
(1.10742 -3.11033e-012 0)
(2.83554 -8.64363e-012 0)
(6.4289 -1.65481e-012 0)
(12.8996 -3.96728e-012 0)
(22.9182 1.06889e-012 0)
(36.222 -2.99099e-012 0)
(51.8947 6.35832e-013 0)
(68.5883 2.76286e-012 0)
(85.5622 -1.42708e-012 0)
(102.263 -1.21123e-013 0)
(118.659 -3.31339e-012 0)
(134.443 8.87927e-012 0)
(149.857 9.4303e-013 0)
(164.598 1.76357e-012 0)
(178.679 1.16215e-012 0)
(192.279 -2.92529e-012 0)
(205.024 2.03797e-011 0)
(217.053 -4.99748e-011 0)
(228.369 6.05459e-010 0)
(238.798 9.58484e-010 0)
(248.264 1.69951e-008 0)
(256.872 1.09507e-007 0)
(264.545 4.62027e-007 0)
(270.96 3.55724e-006 0)
(276.35 1.06575e-005 0)
(280.929 4.84648e-005 0)
(284.501 0.000140167 0)
(287.321 0.000373142 0)
(289.498 0.000881926 0)
(290.828 0.00158707 0)
(291.709 0.00267991 0)
(292.291 0.00453256 0)
(292.403 0.00758887 0)
(292.4 0.0127371 0)
(292.486 0.0302171 0)
(292.604 0.042792 0)
(292.754 0.0540732 0)
(292.931 0.0586908 0)
(293.125 0.0648988 0)
(293.311 0.0682528 0)
(293.464 0.0722157 0)
(293.54 0.0901307 0)
(293.504 0.118029 0)
(293.387 0.143809 0)
(293.232 0.166012 0)
(293.055 0.191086 0)
(292.863 0.221903 0)
(292.674 0.259396 0)
(292.524 0.296858 0)
(292.399 0.330049 0)
(292.283 0.375833 0)
(292.215 0.426343 0)
(292.166 0.449433 0)
(292.096 0.496008 0)
(0.000329855 3.18695e-012 0)
(0.00182038 -1.10212e-011 0)
(0.00786708 1.82271e-011 0)
(0.0316823 1.46657e-011 0)
(0.116137 2.49241e-011 0)
(0.382071 -2.8074e-012 0)
(1.10742 -4.8754e-012 0)
(2.83554 -8.19039e-012 0)
(6.4289 -4.86478e-013 0)
(12.8996 -4.48945e-012 0)
(22.9182 4.23592e-012 0)
(36.222 1.52237e-012 0)
(51.8947 -4.1715e-013 0)
(68.5883 1.57524e-012 0)
(85.5622 8.07087e-013 0)
(102.263 3.2709e-012 0)
(118.659 -2.70625e-012 0)
(134.443 1.91811e-012 0)
(149.857 3.66905e-013 0)
(164.598 2.57833e-012 0)
(178.679 3.61516e-012 0)
(192.279 -2.14776e-012 0)
(205.024 2.00251e-011 0)
(217.053 -5.27124e-011 0)
(228.369 6.25989e-010 0)
(238.798 9.58736e-010 0)
(248.264 1.76702e-008 0)
(256.872 1.12533e-007 0)
(264.545 4.82191e-007 0)
(270.96 3.68923e-006 0)
(276.35 1.11788e-005 0)
(280.929 5.06077e-005 0)
(284.501 0.000148321 0)
(287.321 0.000395019 0)
(289.498 0.000945636 0)
(290.828 0.00170672 0)
(291.709 0.00282908 0)
(292.291 0.00481875 0)
(292.403 0.00812966 0)
(292.401 0.0122562 0)
(292.487 0.0334935 0)
(292.606 0.0490745 0)
(292.755 0.062159 0)
(292.931 0.0665511 0)
(293.126 0.0717982 0)
(293.311 0.0619483 0)
(293.464 0.0684751 0)
(293.542 0.0911789 0)
(293.506 0.119082 0)
(293.389 0.153681 0)
(293.234 0.181458 0)
(293.057 0.207725 0)
(292.866 0.239823 0)
(292.677 0.27893 0)
(292.528 0.321785 0)
(292.404 0.357504 0)
(292.289 0.404032 0)
(292.22 0.457086 0)
(292.17 0.493094 0)
(292.101 0.538469 0)
(0.000329855 1.88646e-012 0)
(0.00182038 -8.08514e-012 0)
(0.00786708 1.65584e-011 0)
(0.0316823 1.71634e-011 0)
(0.116137 2.38002e-011 0)
(0.382071 -5.56684e-012 0)
(1.10742 -5.66061e-012 0)
(2.83554 -8.17625e-012 0)
(6.4289 -4.5766e-012 0)
(12.8996 -5.81084e-012 0)
(22.9182 1.82808e-012 0)
(36.222 1.75596e-012 0)
(51.8947 2.95638e-012 0)
(68.5883 2.18543e-012 0)
(85.5622 -1.33081e-012 0)
(102.263 -3.48323e-012 0)
(118.659 -2.10371e-012 0)
(134.443 4.30029e-012 0)
(149.857 3.78615e-014 0)
(164.598 1.44941e-012 0)
(178.679 1.0726e-012 0)
(192.279 -3.78194e-012 0)
(205.024 1.98268e-011 0)
(217.053 -5.29829e-011 0)
(228.369 6.46614e-010 0)
(238.798 9.49738e-010 0)
(248.264 1.82367e-008 0)
(256.872 1.14726e-007 0)
(264.545 4.9953e-007 0)
(270.96 3.79708e-006 0)
(276.35 1.16413e-005 0)
(280.929 5.24636e-005 0)
(284.501 0.000155854 0)
(287.321 0.000415268 0)
(289.498 0.00100753 0)
(290.828 0.00182107 0)
(291.709 0.00297882 0)
(292.292 0.00509454 0)
(292.403 0.00859945 0)
(292.402 0.0121292 0)
(292.489 0.0345915 0)
(292.607 0.0521966 0)
(292.755 0.0651578 0)
(292.932 0.0712986 0)
(293.125 0.074329 0)
(293.311 0.0641304 0)
(293.466 0.0738627 0)
(293.544 0.098556 0)
(293.508 0.118684 0)
(293.392 0.156376 0)
(293.236 0.193217 0)
(293.059 0.224824 0)
(292.869 0.25663 0)
(292.682 0.29666 0)
(292.532 0.346198 0)
(292.408 0.386073 0)
(292.294 0.427726 0)
(292.225 0.480483 0)
(292.176 0.539814 0)
(292.107 0.586549 0)
(0.000329855 4.10803e-012 0)
(0.00182038 -1.15741e-011 0)
(0.00786708 1.81425e-011 0)
(0.0316823 1.67977e-011 0)
(0.116137 2.24768e-011 0)
(0.382071 -6.62196e-012 0)
(1.10742 -4.98284e-012 0)
(2.83554 -7.89888e-012 0)
(6.4289 -2.03748e-012 0)
(12.8996 -5.87476e-012 0)
(22.9182 3.299e-012 0)
(36.222 5.84531e-012 0)
(51.8947 1.3716e-012 0)
(68.5883 -1.03676e-013 0)
(85.5622 4.65835e-012 0)
(102.263 -2.21055e-012 0)
(118.659 -2.00669e-012 0)
(134.443 -1.68403e-012 0)
(149.857 -7.1148e-013 0)
(164.598 2.25696e-012 0)
(178.679 1.73822e-012 0)
(192.279 -2.74869e-012 0)
(205.024 1.95931e-011 0)
(217.053 -5.34452e-011 0)
(228.369 6.60808e-010 0)
(238.798 9.31773e-010 0)
(248.264 1.86979e-008 0)
(256.872 1.16162e-007 0)
(264.545 5.14211e-007 0)
(270.96 3.88257e-006 0)
(276.35 1.20479e-005 0)
(280.929 5.40506e-005 0)
(284.501 0.000162782 0)
(287.321 0.000433946 0)
(289.498 0.00106763 0)
(290.828 0.00192987 0)
(291.709 0.00313025 0)
(292.292 0.00536348 0)
(292.404 0.00898033 0)
(292.403 0.0124911 0)
(292.49 0.0336385 0)
(292.608 0.0510812 0)
(292.756 0.0632527 0)
(292.932 0.070242 0)
(293.125 0.0738216 0)
(293.311 0.0761403 0)
(293.467 0.0860574 0)
(293.545 0.106546 0)
(293.51 0.12655 0)
(293.395 0.160504 0)
(293.239 0.202471 0)
(293.062 0.240726 0)
(292.872 0.272616 0)
(292.686 0.310173 0)
(292.537 0.36609 0)
(292.412 0.418156 0)
(292.299 0.453846 0)
(292.233 0.504545 0)
(292.183 0.587965 0)
(292.112 0.632638 0)
(0.000329855 3.55498e-012 0)
(0.00182038 -8.34778e-012 0)
(0.00786708 1.43715e-011 0)
(0.0316823 1.677e-011 0)
(0.116137 2.13676e-011 0)
(0.382071 -9.87344e-012 0)
(1.10742 -4.48764e-012 0)
(2.83554 -8.30739e-012 0)
(6.4289 -5.44477e-012 0)
(12.8996 -7.02418e-012 0)
(22.9182 5.4749e-012 0)
(36.222 2.6136e-012 0)
(51.8947 1.63659e-012 0)
(68.5883 1.00396e-012 0)
(85.5622 3.00337e-012 0)
(102.263 -2.60562e-012 0)
(118.659 -5.85871e-012 0)
(134.443 3.17061e-012 0)
(149.857 -1.57036e-012 0)
(164.598 -2.33439e-013 0)
(178.679 -1.60717e-012 0)
(192.279 -2.74039e-012 0)
(205.024 1.98846e-011 0)
(217.053 -5.56174e-011 0)
(228.369 6.6981e-010 0)
(238.798 9.08554e-010 0)
(248.264 1.90646e-008 0)
(256.872 1.1692e-007 0)
(264.545 5.26412e-007 0)
(270.96 3.94755e-006 0)
(276.35 1.24017e-005 0)
(280.929 5.53874e-005 0)
(284.501 0.000169129 0)
(287.321 0.000451114 0)
(289.498 0.00112595 0)
(290.828 0.00203302 0)
(291.709 0.00328372 0)
(292.292 0.0056312 0)
(292.404 0.00929961 0)
(292.404 0.0132793 0)
(292.492 0.0316042 0)
(292.609 0.0484334 0)
(292.757 0.061643 0)
(292.932 0.0701581 0)
(293.125 0.0773675 0)
(293.311 0.0829007 0)
(293.468 0.093122 0)
(293.546 0.110504 0)
(293.512 0.137805 0)
(293.397 0.168921 0)
(293.242 0.209044 0)
(293.065 0.250433 0)
(292.874 0.287543 0)
(292.69 0.325329 0)
(292.543 0.384421 0)
(292.417 0.45046 0)
(292.303 0.485914 0)
(292.241 0.54055 0)
(292.191 0.630399 0)
(292.117 0.676515 0)
(0.000329855 4.12587e-012 0)
(0.00182038 -1.16492e-011 0)
(0.00786708 1.41151e-011 0)
(0.0316823 1.39656e-011 0)
(0.116137 2.09022e-011 0)
(0.382071 -8.79885e-012 0)
(1.10742 -4.73591e-012 0)
(2.83554 -7.35302e-012 0)
(6.4289 -3.31531e-012 0)
(12.8996 -7.52001e-012 0)
(22.9182 6.05721e-012 0)
(36.222 5.04004e-012 0)
(51.8947 2.93e-012 0)
(68.5883 -2.2194e-012 0)
(85.5622 4.20509e-012 0)
(102.263 -5.34316e-012 0)
(118.659 -1.30094e-012 0)
(134.443 -4.02621e-012 0)
(149.857 -5.29604e-013 0)
(164.598 -7.59278e-014 0)
(178.679 3.06641e-012 0)
(192.279 -2.03064e-012 0)
(205.024 2.10161e-011 0)
(217.053 -5.57887e-011 0)
(228.369 6.77314e-010 0)
(238.798 8.78405e-010 0)
(248.264 1.93443e-008 0)
(256.872 1.17074e-007 0)
(264.545 5.36309e-007 0)
(270.96 3.99384e-006 0)
(276.35 1.27057e-005 0)
(280.929 5.64928e-005 0)
(284.501 0.000174916 0)
(287.321 0.000466849 0)
(289.498 0.0011824 0)
(290.829 0.00213082 0)
(291.709 0.00343912 0)
(292.292 0.00589896 0)
(292.404 0.00961749 0)
(292.405 0.0142995 0)
(292.493 0.0290674 0)
(292.61 0.0452281 0)
(292.758 0.0594298 0)
(292.933 0.070679 0)
(293.126 0.0819358 0)
(293.312 0.0901098 0)
(293.469 0.0998101 0)
(293.548 0.115101 0)
(293.514 0.147138 0)
(293.399 0.176967 0)
(293.245 0.212883 0)
(293.068 0.258599 0)
(292.878 0.304995 0)
(292.694 0.347648 0)
(292.549 0.406499 0)
(292.422 0.475487 0)
(292.308 0.512496 0)
(292.249 0.578407 0)
(292.198 0.677932 0)
(292.122 0.706798 0)
(0.000329855 4.03421e-012 0)
(0.00182038 -7.366e-012 0)
(0.00786708 1.005e-011 0)
(0.0316823 1.36858e-011 0)
(0.116137 2.05752e-011 0)
(0.382071 -1.02506e-011 0)
(1.10742 -3.27178e-012 0)
(2.83554 -8.18612e-012 0)
(6.4289 -3.98268e-012 0)
(12.8996 -6.51362e-012 0)
(22.9182 7.0188e-012 0)
(36.222 1.45562e-012 0)
(51.8947 5.12633e-012 0)
(68.5883 9.42923e-013 0)
(85.5622 2.86254e-013 0)
(102.263 -5.91813e-012 0)
(118.659 -3.64104e-012 0)
(134.443 1.25861e-012 0)
(149.857 -1.83469e-012 0)
(164.598 -2.67344e-012 0)
(178.679 2.51708e-013 0)
(192.279 -2.45342e-012 0)
(205.024 2.17578e-011 0)
(217.053 -5.65271e-011 0)
(228.369 6.81495e-010 0)
(238.798 8.44652e-010 0)
(248.264 1.95455e-008 0)
(256.872 1.16703e-007 0)
(264.545 5.44083e-007 0)
(270.96 4.02325e-006 0)
(276.35 1.29631e-005 0)
(280.929 5.73857e-005 0)
(284.501 0.000180164 0)
(287.321 0.000481231 0)
(289.498 0.00123693 0)
(290.829 0.00222356 0)
(291.71 0.00359634 0)
(292.292 0.00616437 0)
(292.405 0.00997283 0)
(292.406 0.0154826 0)
(292.494 0.0269113 0)
(292.611 0.0423356 0)
(292.759 0.0579867 0)
(292.934 0.0713836 0)
(293.126 0.0855211 0)
(293.312 0.0974096 0)
(293.469 0.106711 0)
(293.549 0.121771 0)
(293.516 0.154282 0)
(293.401 0.18295 0)
(293.247 0.217747 0)
(293.071 0.266904 0)
(292.881 0.32205 0)
(292.699 0.369344 0)
(292.555 0.428839 0)
(292.427 0.490922 0)
(292.314 0.531023 0)
(292.259 0.611867 0)
(292.205 0.72099 0)
(292.126 0.738538 0)
(0.000329855 2.99364e-012 0)
(0.00182038 -1.04491e-011 0)
(0.00786708 1.168e-011 0)
(0.0316823 1.05241e-011 0)
(0.116137 1.98641e-011 0)
(0.382071 -9.01834e-012 0)
(1.10742 -3.79259e-012 0)
(2.83554 -6.13362e-012 0)
(6.4289 -2.42118e-012 0)
(12.8996 -7.5086e-012 0)
(22.9182 4.30318e-012 0)
(36.222 6.07821e-012 0)
(51.8947 2.19333e-012 0)
(68.5883 2.41948e-013 0)
(85.5622 2.71543e-012 0)
(102.263 -1.84232e-012 0)
(118.659 -7.30041e-012 0)
(134.443 -1.54746e-012 0)
(149.857 -1.00023e-012 0)
(164.598 -5.01301e-013 0)
(178.679 2.23155e-012 0)
(192.279 -3.51851e-012 0)
(205.024 2.12255e-011 0)
(217.053 -5.58558e-011 0)
(228.369 6.83259e-010 0)
(238.798 8.07466e-010 0)
(248.264 1.9673e-008 0)
(256.872 1.15873e-007 0)
(264.545 5.49906e-007 0)
(270.96 4.03753e-006 0)
(276.35 1.31771e-005 0)
(280.929 5.80842e-005 0)
(284.501 0.000184898 0)
(287.321 0.000494331 0)
(289.498 0.00128953 0)
(290.829 0.00231141 0)
(291.71 0.003755 0)
(292.293 0.00642802 0)
(292.405 0.0103564 0)
(292.406 0.0168211 0)
(292.495 0.0262255 0)
(292.612 0.0409267 0)
(292.76 0.0596463 0)
(292.935 0.0738536 0)
(293.127 0.0863623 0)
(293.313 0.105926 0)
(293.47 0.114435 0)
(293.551 0.129042 0)
(293.518 0.156901 0)
(293.403 0.187295 0)
(293.25 0.229483 0)
(293.075 0.275656 0)
(292.885 0.328979 0)
(292.703 0.378596 0)
(292.56 0.4426 0)
(292.431 0.506916 0)
(292.32 0.555695 0)
(292.269 0.647922 0)
(292.212 0.751943 0)
(292.13 0.787308 0)
(0.000329855 3.6658e-012 0)
(0.00182038 -5.51055e-012 0)
(0.00786708 8.18346e-012 0)
(0.0316823 8.7867e-012 0)
(0.116137 2.07368e-011 0)
(0.382071 -1.00395e-011 0)
(1.10742 -3.0997e-012 0)
(2.83554 -7.24783e-012 0)
(6.4289 1.47126e-013 0)
(12.8996 -6.50806e-012 0)
(22.9182 6.83739e-012 0)
(36.222 3.19974e-012 0)
(51.8947 4.08564e-012 0)
(68.5883 -2.41989e-012 0)
(85.5622 5.55607e-012 0)
(102.263 -6.96324e-012 0)
(118.659 -4.54617e-012 0)
(134.443 -1.02956e-013 0)
(149.857 -2.90646e-012 0)
(164.598 -2.70514e-012 0)
(178.679 -1.49395e-014 0)
(192.279 -2.75929e-012 0)
(205.024 2.07794e-011 0)
(217.053 -5.61914e-011 0)
(228.369 6.8269e-010 0)
(238.798 7.7009e-010 0)
(248.264 1.97371e-008 0)
(256.872 1.1465e-007 0)
(264.545 5.53951e-007 0)
(270.96 4.03836e-006 0)
(276.35 1.33508e-005 0)
(280.929 5.8606e-005 0)
(284.501 0.000189143 0)
(287.321 0.000506229 0)
(289.498 0.00134013 0)
(290.829 0.00239492 0)
(291.71 0.0039136 0)
(292.293 0.00669009 0)
(292.405 0.0107391 0)
(292.407 0.0182092 0)
(292.495 0.0274275 0)
(292.614 0.0424683 0)
(292.761 0.0631931 0)
(292.936 0.07873 0)
(293.129 0.0875168 0)
(293.314 0.109314 0)
(293.471 0.120399 0)
(293.551 0.135288 0)
(293.519 0.15895 0)
(293.405 0.194467 0)
(293.253 0.241893 0)
(293.078 0.283681 0)
(292.889 0.326975 0)
(292.708 0.377893 0)
(292.565 0.454313 0)
(292.437 0.536628 0)
(292.327 0.589604 0)
(292.279 0.685619 0)
(292.219 0.777103 0)
(292.136 0.837403 0)
(0.000329855 2.24568e-012 0)
(0.00182038 -7.42876e-012 0)
(0.00786708 8.96744e-012 0)
(0.0316823 7.04428e-012 0)
(0.116137 1.93066e-011 0)
(0.382071 -1.08273e-011 0)
(1.10742 -3.57929e-012 0)
(2.83554 -7.82885e-012 0)
(6.4289 -5.46717e-014 0)
(12.8996 -6.10748e-012 0)
(22.9182 4.95705e-012 0)