0.005 	348.432 	4.16306e-010 	100000
0.015 	348.432 	4.82249e-010 	100000
0.025 	348.432 	5.48193e-010 	100000
0.035 	348.432 	6.14136e-010 	100000
0.045 	348.432 	6.80079e-010 	100000
0.055 	348.432 	7.46023e-010 	100000
0.065 	348.432 	8.11966e-010 	100000
0.075 	348.432 	8.7791e-010 	100000
0.085 	348.432 	9.43853e-010 	100000
0.095 	348.432 	1.0098e-009 	100000
0.105 	348.432 	1.07574e-009 	100000
0.115 	348.432 	1.14168e-009 	100000
0.125 	348.432 	1.20763e-009 	100000
0.135 	348.432 	1.27357e-009 	100000
0.145 	348.432 	1.33951e-009 	100000
0.155 	348.432 	1.40546e-009 	100000
0.165 	348.432 	1.4714e-009 	100000
0.175 	348.432 	1.53734e-009 	100000
0.185 	348.432 	1.60329e-009 	100000
0.195 	348.432 	1.66923e-009 	100000
0.205 	348.432 	1.73517e-009 	100000
0.215 	348.432 	1.80112e-009 	100000
0.225 	348.432 	1.86706e-009 	100000
0.235 	348.432 	1.933e-009 	100000
0.245 	348.432 	1.99895e-009 	100000
0.255 	348.432 	2.06489e-009 	100000
0.265 	348.432 	2.13083e-009 	100000
0.275 	348.432 	2.19678e-009 	100000
0.285 	348.432 	2.26272e-009 	100000
0.295 	348.432 	2.32866e-009 	100000
0.305 	348.432 	2.39461e-009 	100000
0.315 	348.432 	2.46055e-009 	100000
0.325 	348.432 	2.52649e-009 	100000
0.335 	348.432 	2.59244e-009 	100000
0.345 	348.432 	2.65838e-009 	100000
0.355 	348.432 	2.72433e-009 	100000
0.365 	348.432 	2.79027e-009 	100000
0.375 	348.432 	2.85621e-009 	100000
0.385 	348.432 	4.66519e-009 	100000
0.395 	348.432 	6.47418e-009 	100000
0.405 	348.432 	8.28316e-009 	100000
0.415 	348.432 	1.00921e-008 	100000
0.425 	348.432 	1.19011e-008 	100000
0.435 	348.432 	1.37101e-008 	100000
0.445 	348.432 	1.55191e-008 	100000
0.455 	348.432 	1.73281e-008 	100000
0.465 	348.432 	1.91371e-008 	100000
0.475 	348.432 	2.0946e-008 	100000
0.485 	348.432 	2.2755e-008 	100000
0.495 	348.432 	2.4564e-008 	100000
0.505 	348.432 	2.6373e-008 	100000
0.515 	348.432 	2.8182e-008 	100000
0.525 	348.432 	2.99909e-008 	100000
0.535 	348.432 	3.17999e-008 	100000
0.545 	348.432 	3.36089e-008 	100000
0.555 	348.432 	3.54179e-008 	100000
0.565 	348.432 	3.72269e-008 	100000
0.575 	348.432 	3.90359e-008 	100000
0.585 	348.432 	4.08448e-008 	100000
0.595 	348.432 	4.26538e-008 	100000
0.605 	348.432 	4.44628e-008 	100000
0.615 	348.432 	4.62718e-008 	100000
0.625 	348.432 	4.80808e-008 	100000
0.635 	348.432 	4.98897e-008 	100000
0.645 	348.432 	5.16987e-008 	100000
0.655 	348.432 	5.35077e-008 	100000
0.665 	348.432 	5.53167e-008 	100000
0.675 	348.432 	5.71257e-008 	100000
0.685 	348.432 	5.89347e-008 	100000
0.695 	348.432 	6.07436e-008 	100000
0.705 	348.432 	6.25526e-008 	100000
0.715 	348.432 	6.43616e-008 	100000
0.725 	348.432 	6.61706e-008 	100000
0.735 	348.432 	6.79796e-008 	100000
0.745 	348.432 	6.97886e-008 	100000
0.755 	348.432 	8.1422e-008 	100000
0.765 	348.432 	1.0288e-007 	100000
0.775 	348.432 	1.24338e-007 	100000
0.785 	348.432 	1.45796e-007 	100000
0.795 	348.432 	1.67253e-007 	100000
0.805 	348.432 	1.88711e-007 	100000
0.815 	348.432 	2.10169e-007 	100000
0.825 	348.432 	2.31627e-007 	100000
0.835 	348.432 	2.53085e-007 	100000
0.845 	348.432 	2.74543e-007 	100000
0.855 	348.432 	2.96001e-007 	100000
0.865 	348.432 	3.17459e-007 	100000
0.875 	348.432 	3.38917e-007 	100000
0.885 	348.432 	3.60374e-007 	100000
0.895 	348.432 	3.81832e-007 	100000
0.905 	348.432 	4.0329e-007 	100000
0.915 	348.432 	4.24748e-007 	100000
0.925 	348.432 	4.46206e-007 	100000
0.935 	348.432 	4.67664e-007 	100000
0.945 	348.432 	4.89122e-007 	100000
0.955 	348.432 	5.1058e-007 	100000
0.965 	348.432 	5.32037e-007 	100000
0.975 	348.432 	5.53495e-007 	100000
0.985 	348.432 	5.74953e-007 	100000
0.995 	348.432 	5.96411e-007 	100000
1.005 	348.432 	6.17869e-007 	100000
1.015 	348.432 	6.39327e-007 	100000
1.025 	348.432 	6.60785e-007 	100000
1.035 	348.432 	6.82243e-007 	100000
1.045 	348.432 	7.037e-007 	100000
1.055 	348.432 	7.25158e-007 	100000
1.065 	348.432 	7.46616e-007 	100000
1.075 	348.432 	7.68074e-007 	100000
1.085 	348.432 	7.89532e-007 	100000
1.095 	348.432 	8.1099e-007 	100000
1.105 	348.432 	8.32448e-007 	100000
1.115 	348.432 	8.53906e-007 	100000
1.125 	348.432 	8.75363e-007 	100000
1.135 	348.432 	1.31291e-006 	100000
1.145 	348.432 	1.75046e-006 	100000
1.155 	348.432 	2.18801e-006 	100000
1.165 	348.432 	2.62556e-006 	100000
1.175 	348.432 	3.06311e-006 	100000
1.185 	348.432 	3.50065e-006 	100000
1.195 	348.432 	3.9382e-006 	100000
1.205 	348.432 	4.37575e-006 	100000
1.215 	348.432 	4.8133e-006 	100000
1.225 	348.432 	5.25085e-006 	100000
1.235 	348.432 	5.6884e-006 	100000
1.245 	348.432 	6.12595e-006 	100000
1.255 	348.432 	6.56349e-006 	100000
1.265 	348.432 	7.00104e-006 	100000
1.275 	348.432 	7.43859e-006 	100000
1.285 	348.432 	7.87614e-006 	100000
1.295 	348.432 	8.31369e-006 	100000
1.305 	348.432 	8.75124e-006 	100000
1.315 	348.432 	9.18879e-006 	100000
1.325 	348.432 	9.62633e-006 	100000
1.335 	348.432 	1.00639e-005 	100000
1.345 	348.432 	1.05014e-005 	100000
1.355 	348.432 	1.0939e-005 	100000
1.365 	348.432 	1.13765e-005 	100000
1.375 	348.432 	1.18141e-005 	100000
1.385 	348.432 	1.22516e-005 	100000
1.395 	348.432 	1.26892e-005 	100000
1.405 	348.432 	1.31267e-005 	100000
1.415 	348.432 	1.35643e-005 	100000
1.425 	348.432 	1.40018e-005 	100000
1.435 	348.432 	1.44394e-005 	100000
1.445 	348.432 	1.48769e-005 	100000
1.455 	348.432 	1.53145e-005 	100000
1.465 	348.432 	1.5752e-005 	100000
1.475 	348.432 	1.61896e-005 	100000
1.485 	348.432 	1.66271e-005 	100000
1.495 	348.432 	1.70647e-005 	100000
1.505 	348.432 	1.95076e-005 	100000
1.515 	348.432 	2.39558e-005 	100000
1.525 	348.432 	2.8404e-005 	100000
1.535 	348.432 	3.28523e-005 	100000
1.545 	348.432 	3.73005e-005 	100000
1.555 	348.432 	4.17488e-005 	100000
1.565 	348.432 	4.6197e-005 	100000
1.575 	348.432 	5.06453e-005 	100000
1.585 	348.432 	5.50935e-005 	100000
1.595 	348.432 	5.95418e-005 	100000
1.605 	348.432 	6.399e-005 	100000
1.615 	348.432 	6.84382e-005 	100000
1.625 	348.432 	7.28865e-005 	100000
1.635 	348.432 	7.73347e-005 	100000
1.645 	348.432 	8.1783e-005 	100000
1.655 	348.432 	8.62312e-005 	100000
1.665 	348.432 	9.06795e-005 	100000
1.675 	348.432 	9.51277e-005 	100000
1.685 	348.432 	9.9576e-005 	100000
1.695 	348.432 	0.000104024 	100000
1.705 	348.432 	0.000108472 	100000
1.715 	348.432 	0.000112921 	100000
1.725 	348.432 	0.000117369 	100000
1.735 	348.432 	0.000121817 	100000
1.745 	348.432 	0.000126265 	100000
1.755 	348.432 	0.000130714 	100000
1.765 	348.432 	0.000135162 	100000
1.775 	348.432 	0.00013961 	100000
1.785 	348.432 	0.000144058 	100000
1.795 	348.432 	0.000148507 	100000
1.805 	348.432 	0.000152955 	100000
1.815 	348.432 	0.000157403 	100000
1.825 	348.432 	0.000161851 	100000
1.835 	348.432 	0.0001663 	100000
1.845 	348.432 	0.000170748 	100000
1.855 	348.432 	0.000175196 	100000
1.865 	348.432 	0.000179644 	100000
1.875 	348.432 	0.000184093 	99999.9
1.885 	348.432 	0.000252354 	99999.9
1.895 	348.432 	0.000320615 	99999.9
1.905 	348.432 	0.000388876 	99999.9
1.915 	348.432 	0.000457137 	99999.9
1.925 	348.432 	0.000525398 	99999.9
1.935 	348.432 	0.00059366 	99999.8
1.945 	348.432 	0.000661921 	99999.8
1.955 	348.432 	0.000730182 	99999.8
1.965 	348.432 	0.000798443 	99999.8
1.975 	348.432 	0.000866704 	99999.8
1.985 	348.432 	0.000934965 	99999.7
1.995 	348.432 	0.00100323 	99999.7
2.005 	348.432 	0.00107149 	99999.7
2.015 	348.432 	0.00113975 	99999.7
2.025 	348.432 	0.00120801 	99999.7
2.035 	348.432 	0.00127627 	99999.7
2.045 	348.432 	0.00134453 	99999.6
2.055 	348.432 	0.00141279 	99999.6
2.065 	348.432 	0.00148105 	99999.6
2.075 	348.432 	0.00154932 	99999.6
2.085 	348.432 	0.00161758 	99999.6
2.095 	348.432 	0.00168584 	99999.5
2.105 	348.432 	0.0017541 	99999.5
2.115 	348.432 	0.00182236 	99999.5
2.125 	348.432 	0.00189062 	99999.5
2.135 	348.432 	0.00195888 	99999.5
2.145 	348.432 	0.00202714 	99999.4
2.155 	348.432 	0.00209541 	99999.4
2.165 	348.432 	0.00216367 	99999.4
2.175 	348.432 	0.00223193 	99999.4
2.185 	348.432 	0.00230019 	99999.4
2.195 	348.432 	0.00236845 	99999.4
2.205 	348.432 	0.00243671 	99999.3
2.215 	348.432 	0.00250497 	99999.3
2.225 	348.432 	0.00257323 	99999.3
2.235 	348.432 	0.00264149 	99999.3
2.245 	348.432 	0.00270976 	99999.3
2.255 	348.431 	0.00302886 	99999.1
2.265 	348.431 	0.00359882 	99998.9
2.275 	348.431 	0.00416877 	99998.6
2.285 	348.431 	0.00473872 	99998.4
2.295 	348.43 	0.00530867 	99998.2
2.305 	348.43 	0.00587863 	99997.9
2.315 	348.43 	0.00644858 	99997.7
2.325 	348.43 	0.00701853 	99997.4
2.335 	348.429 	0.00758849 	99997.2
2.345 	348.429 	0.00815844 	99997
2.355 	348.429 	0.00872839 	99996.7
2.365 	348.429 	0.00929834 	99996.5
2.375 	348.428 	0.0098683 	99996.2
2.385 	348.428 	0.0104383 	99996
2.395 	348.428 	0.0110082 	99995.8
2.405 	348.428 	0.0115782 	99995.5
2.415 	348.428 	0.0121481 	99995.3
2.425 	348.427 	0.0127181 	99995
2.435 	348.427 	0.013288 	99994.8
2.445 	348.427 	0.013858 	99994.5
2.455 	348.427 	0.0144279 	99994.3
2.465 	348.426 	0.0149979 	99994.1
2.475 	348.426 	0.0155678 	99993.8
2.485 	348.426 	0.0161378 	99993.6
2.495 	348.426 	0.0167077 	99993.3
2.505 	348.425 	0.0172777 	99993.1
2.515 	348.425 	0.0178476 	99992.9
2.525 	348.425 	0.0184176 	99992.6
2.535 	348.425 	0.0189875 	99992.4
2.545 	348.424 	0.0195575 	99992.1
2.555 	348.424 	0.0201274 	99991.9
2.565 	348.424 	0.0206974 	99991.6
2.575 	348.424 	0.0212674 	99991.4
2.585 	348.423 	0.0218373 	99991.2
2.595 	348.423 	0.0224073 	99990.9
2.605 	348.423 	0.0229772 	99990.7
2.615 	348.423 	0.0235472 	99990.4
2.625 	348.423 	0.0241171 	99990.2
2.635 	348.421 	0.030168 	99988.4
2.645 	348.419 	0.0362189 	99986.6
2.655 	348.417 	0.0422697 	99984.8
2.665 	348.415 	0.0483206 	99983
2.675 	348.413 	0.0543715 	99981.2
2.685 	348.412 	0.0604224 	99979.4
2.695 	348.41 	0.0664732 	99977.6
2.705 	348.408 	0.0725241 	99975.8
2.715 	348.406 	0.078575 	99974
2.725 	348.404 	0.0846258 	99972.1
2.735 	348.403 	0.0906767 	99970.3
2.745 	348.401 	0.0967276 	99968.5
2.755 	348.399 	0.102778 	99966.7
2.765 	348.397 	0.108829 	99964.9
2.775 	348.395 	0.11488 	99963.1
2.785 	348.393 	0.120931 	99961.3
2.795 	348.392 	0.126982 	99959.5
2.805 	348.39 	0.133033 	99957.7
2.815 	348.388 	0.139084 	99955.9
2.825 	348.386 	0.145135 	99954.1
2.835 	348.384 	0.151185 	99952.3
2.845 	348.383 	0.157236 	99950.5
2.855 	348.381 	0.163287 	99948.7
2.865 	348.379 	0.169338 	99946.9
2.875 	348.377 	0.175389 	99945.1
2.885 	348.375 	0.18144 	99943.3
2.895 	348.374 	0.187491 	99941.5
2.905 	348.372 	0.193542 	99939.7
2.915 	348.37 	0.199592 	99937.8
2.925 	348.368 	0.205643 	99936
2.935 	348.366 	0.211694 	99934.2
2.945 	348.364 	0.217745 	99932.4
2.955 	348.363 	0.223796 	99930.6
2.965 	348.361 	0.229847 	99928.8
2.975 	348.359 	0.235898 	99927
2.985 	348.357 	0.241949 	99925.2
2.995 	348.355 	0.247999 	99923.4
3.005 	348.347 	0.269146 	99914.8
3.015 	348.331 	0.305387 	99899.5
3.025 	348.316 	0.341628 	99884.1
3.035 	348.301 	0.37787 	99868.8
3.045 	348.285 	0.414111 	99853.4
3.055 	348.27 	0.450353 	99838.1
3.065 	348.254 	0.486594 	99822.7
3.075 	348.239 	0.522836 	99807.4
3.085 	348.223 	0.559077 	99792
3.095 	348.208 	0.595319 	99776.7
3.105 	348.193 	0.63156 	99761.3
3.115 	348.177 	0.667801 	99746
3.125 	348.162 	0.704043 	99730.7
3.135 	348.146 	0.740284 	99715.3
3.145 	348.131 	0.776526 	99700
3.155 	348.115 	0.812767 	99684.6
3.165 	348.1 	0.849009 	99669.3
3.175 	348.085 	0.88525 	99653.9
3.185 	348.069 	0.921492 	99638.6
3.195 	348.054 	0.957733 	99623.2
3.205 	348.038 	0.993974 	99607.9
3.215 	348.023 	1.03022 	99592.5
3.225 	348.007 	1.06646 	99577.2
3.235 	347.992 	1.1027 	99561.8
3.245 	347.977 	1.13894 	99546.5
3.255 	347.961 	1.17518 	99531.1
3.265 	347.946 	1.21142 	99515.8
3.275 	347.93 	1.24766 	99500.4
3.285 	347.915 	1.28391 	99485.1
3.295 	347.899 	1.32015 	99469.7
3.305 	347.884 	1.35639 	99454.4
3.315 	347.869 	1.39263 	99439
3.325 	347.853 	1.42887 	99423.7
3.335 	347.838 	1.46511 	99408.3
3.345 	347.822 	1.50135 	99393
3.355 	347.807 	1.5376 	99377.6
3.365 	347.791 	1.57384 	99362.3
3.375 	347.776 	1.61008 	99347
3.385 	347.702 	1.80709 	99275.8
3.395 	347.629 	2.00409 	99204.6
3.405 	347.555 	2.2011 	99133.5
3.415 	347.482 	2.39811 	99062.3
3.425 	347.408 	2.59511 	98991.2
3.435 	347.335 	2.79212 	98920
3.445 	347.261 	2.98913 	98848.9
3.455 	347.188 	3.18614 	98777.7
3.465 	347.114 	3.38314 	98706.6
3.475 	347.04 	3.58015 	98635.4
3.485 	346.967 	3.77716 	98564.3
3.495 	346.893 	3.97416 	98493.1
3.505 	346.82 	4.17117 	98422
3.515 	346.746 	4.36818 	98350.8
3.525 	346.673 	4.56519 	98279.7
3.535 	346.599 	4.76219 	98208.5
3.545 	346.525 	4.9592 	98137.4
3.555 	346.452 	5.15621 	98066.2
3.565 	346.378 	5.35321 	97995.1
3.575 	346.305 	5.55022 	97923.9
3.585 	346.231 	5.74723 	97852.8
3.595 	346.158 	5.94424 	97781.6
3.605 	346.084 	6.14124 	97710.5
3.615 	346.011 	6.33825 	97639.3
3.625 	345.937 	6.53526 	97568.2
3.635 	345.863 	6.73226 	97497
3.645 	345.79 	6.92927 	97425.9
3.655 	345.716 	7.12628 	97354.7
3.665 	345.643 	7.32328 	97283.6
3.675 	345.569 	7.52029 	97212.4
3.685 	345.496 	7.7173 	97141.3
3.695 	345.422 	7.91431 	97070.1
3.705 	345.349 	8.11131 	96999
3.715 	345.275 	8.30832 	96927.8
3.725 	345.201 	8.50533 	96856.7
3.735 	345.128 	8.70233 	96785.5
3.745 	345.054 	8.89934 	96714.4
3.755 	344.896 	9.29745 	96558.4
3.765 	344.653 	9.89665 	96317.5
3.775 	344.411 	10.4959 	96076.7
3.785 	344.168 	11.0951 	95835.8
3.795 	343.925 	11.6943 	95595
3.805 	343.682 	12.2935 	95354.1
3.815 	343.439 	12.8927 	95113.2
3.825 	343.197 	13.4919 	94872.4
3.835 	342.954 	14.0911 	94631.5
3.845 	342.711 	14.6903 	94390.7
3.855 	342.468 	15.2895 	94149.8
3.865 	342.225 	15.8887 	93909
3.875 	341.983 	16.4879 	93668.1
3.885 	341.74 	17.0871 	93427.3
3.895 	341.497 	17.6863 	93186.4
3.905 	341.254 	18.2855 	92945.6
3.915 	341.011 	18.8847 	92704.7
3.925 	340.769 	19.4839 	92463.8
3.935 	340.526 	20.0831 	92223
3.945 	340.283 	20.6824 	91982.1
3.955 	340.04 	21.2816 	91741.3
3.965 	339.797 	21.8808 	91500.4
3.975 	339.555 	22.48 	91259.6
3.985 	339.312 	23.0792 	91018.7
3.995 	339.069 	23.6784 	90777.9
4.005 	338.826 	24.2776 	90537
4.015 	338.583 	24.8768 	90296.2
4.025 	338.341 	25.476 	90055.3
4.035 	338.098 	26.0752 	89814.4
4.045 	337.855 	26.6744 	89573.6
4.055 	337.612 	27.2736 	89332.7
4.065 	337.369 	27.8728 	89091.9
4.075 	337.127 	28.472 	88851
4.085 	336.884 	29.0712 	88610.2
4.095 	336.641 	29.6704 	88369.3
4.105 	336.398 	30.2696 	88128.5
4.115 	336.155 	30.8688 	87887.6
4.125 	335.913 	31.468 	87646.8
4.135 	335.13 	32.9535 	87156.6
4.145 	334.347 	34.4389 	86666.5
4.155 	333.565 	35.9243 	86176.4
4.165 	332.782 	37.4098 	85686.3
4.175 	332 	38.8952 	85196.2
4.185 	331.217 	40.3806 	84706
4.195 	330.435 	41.8661 	84215.9
4.205 	329.652 	43.3515 	83725.8
4.215 	328.869 	44.8369 	83235.7
4.225 	328.087 	46.3224 	82745.6
4.235 	327.304 	47.8078 	82255.4
4.245 	326.522 	49.2932 	81765.3
4.255 	325.739 	50.7787 	81275.2
4.265 	324.957 	52.2641 	80785.1
4.275 	324.174 	53.7495 	80295
4.285 	323.392 	55.235 	79804.8
4.295 	322.609 	56.7204 	79314.7
4.305 	321.826 	58.2058 	78824.6
4.315 	321.044 	59.6913 	78334.5
4.325 	320.261 	61.1767 	77844.4
4.335 	319.479 	62.6621 	77354.2
4.345 	318.696 	64.1476 	76864.1
4.355 	317.914 	65.633 	76374
4.365 	317.131 	67.1184 	75883.9
4.375 	316.349 	68.6039 	75393.8
4.385 	315.566 	70.0893 	74903.6
4.395 	314.783 	71.5747 	74413.5
4.405 	314.001 	73.0602 	73923.4
4.415 	313.218 	74.5456 	73433.3
4.425 	312.436 	76.031 	72943.2
4.435 	311.653 	77.5165 	72453
4.445 	310.871 	79.0019 	71962.9
4.455 	310.088 	80.4873 	71472.8
4.465 	309.305 	81.9728 	70982.7
4.475 	308.523 	83.4582 	70492.6
4.485 	307.74 	84.9436 	70002.4
4.495 	306.958 	86.4291 	69512.3
4.505 	306.65 	88.6255 	69021.1
4.515 	306.816 	91.533 	68528.7
4.525 	306.982 	94.4405 	68036.4
4.535 	307.149 	97.348 	67544
4.545 	307.315 	100.255 	67051.7
4.555 	307.482 	103.163 	66559.3
4.565 	307.648 	106.07 	66067
4.575 	307.814 	108.978 	65574.7
4.585 	307.981 	111.885 	65082.3
4.595 	308.147 	114.793 	64590
4.605 	308.314 	117.7 	64097.6
4.615 	308.48 	120.608 	63605.3
4.625 	308.646 	123.515 	63112.9
4.635 	308.813 	126.423 	62620.6
4.645 	308.979 	129.33 	62128.2
4.655 	309.146 	132.238 	61635.9
4.665 	309.312 	135.145 	61143.5
4.675 	309.478 	138.053 	60651.2
4.685 	309.645 	140.96 	60158.8
4.695 	309.811 	143.868 	59666.5
4.705 	309.978 	146.775 	59174.1
4.715 	310.144 	149.682 	58681.8
4.725 	310.31 	152.59 	58189.5
4.735 	310.477 	155.497 	57697.1
4.745 	310.643 	158.405 	57204.8
4.755 	310.81 	161.312 	56712.4
4.765 	310.976 	164.22 	56220.1
4.775 	311.142 	167.127 	55727.7
4.785 	311.309 	170.035 	55235.4
4.795 	311.475 	172.942 	54743
4.805 	311.642 	175.85 	54250.7
4.815 	311.808 	178.757 	53758.3
4.825 	311.974 	181.665 	53266
4.835 	312.141 	184.572 	52773.6
4.845 	312.307 	187.48 	52281.3
4.855 	312.474 	190.387 	51788.9
4.865 	312.64 	193.295 	51296.6
4.875 	312.806 	196.202 	50804.3
4.885 	313.783 	198.39 	50365.7
4.895 	314.759 	200.578 	49927.1
4.905 	315.735 	202.766 	49488.5
4.915 	316.712 	204.954 	49049.9
4.925 	317.688 	207.142 	48611.3
4.935 	318.664 	209.33 	48172.7
4.945 	319.641 	211.518 	47734.1
4.955 	320.617 	213.706 	47295.5
4.965 	321.593 	215.894 	46856.9
4.975 	322.57 	218.082 	46418.3
4.985 	323.546 	220.27 	45979.7
4.995 	324.522 	222.458 	45541.1
