/*--------------------------------*- C++ -*----------------------------------*\
| =========                 |                                                 |
| \\      /  F ield         | OpenFOAM: The Open Source CFD Toolbox           |
|  \\    /   O peration     | Version:  5.x                                   |
|   \\  /    A nd           | Web:      www.OpenFOAM.org                      |
|    \\/     M anipulation  |                                                 |
\*---------------------------------------------------------------------------*/
/*   Windows 32 and 64 bit porting by blueCAPE: http://www.bluecape.com.pt   *\
|  Based on Windows porting (2.0.x v4) by Symscape: http://www.symscape.com   |
\*---------------------------------------------------------------------------*/
FoamFile
{
    version     2.0;
    format      ascii;
    class       volScalarField;
    location    "0.005";
    object      mag(U);
}
// * * * * * * * * * * * * * * * * * * * * * * * * * * * * * * * * * * * * * //

dimensions      [0 1 -1 0 0 0 0];

internalField   nonuniform List<scalar> 
1000
(
1.89489e-012
1.9584e-012
1.87105e-012
1.86402e-012
1.89691e-012
1.87625e-012
1.94292e-012
1.88502e-012
1.88433e-012
1.93255e-012
1.88244e-012
1.88155e-012
1.9886e-012
1.87703e-012
2.09869e-012
2.0251e-012
2.16633e-012
1.98573e-012
2.00894e-012
2.12149e-012
2.07622e-012
2.10392e-012
2.10794e-012
2.08631e-012
2.31041e-012
2.47172e-012
2.64002e-012
2.91138e-012
2.88407e-012
2.98458e-012
2.97366e-012
2.62125e-012
2.50409e-012
2.57993e-012
2.37417e-012
2.18542e-012
2.22772e-012
2.29781e-012
2.43888e-012
2.52527e-012
2.53077e-012
2.8629e-012
2.28519e-012
2.49276e-012
2.22869e-012
2.34152e-012
2.17116e-012
2.12e-012
2.33725e-012
2.20277e-012
2.34364e-012
2.21381e-012
2.15405e-012
2.22582e-012
2.304e-012
2.15829e-012
2.21743e-012
2.16828e-012
2.17088e-012
2.1756e-012
2.14466e-012
2.18288e-012
2.12215e-012
2.18887e-012
2.29699e-012
2.32106e-012
2.48556e-012
2.46734e-012
2.2702e-012
2.63042e-012
2.30278e-012
2.47841e-012
2.36324e-012
2.27616e-012
2.4988e-012
2.30611e-012
2.62772e-012
2.39173e-012
2.58153e-012
2.89646e-012
3.3415e-012
4.70536e-012
8.98971e-012
2.12649e-011
5.51513e-011
1.44125e-010
3.74551e-010
9.62806e-010
2.44707e-009
6.14629e-009
1.52429e-008
3.73271e-008
9.02282e-008
2.15238e-007
5.06564e-007
1.17586e-006
2.69122e-006
6.07114e-006
1.34948e-005
2.95445e-005
6.36844e-005
0.000135099
0.000281929
0.000578484
0.0011665
0.00231036
0.00449181
0.00856705
0.016018
0.029338
0.0525951
0.09221
0.157953
0.264107
0.430629
0.684033
1.05756
1.59015
2.3239
3.29979
4.55236
6.10396
7.95998
10.1066
12.5147
15.1477
17.9695
20.9478
24.0553
27.2701
30.5743
33.9541
37.3985
40.8986
44.4474
48.0392
51.6694
55.334
59.0296
62.7535
66.503
70.276
74.0705
77.8845
81.7164
85.5646
89.4277
93.3042
97.1928
101.092
105.001
108.919
112.844
116.776
120.713
124.655
128.601
132.549
136.5
140.451
144.404
148.355
152.307
156.255
160.203
164.144
168.086
172.017
175.949
179.869
183.783
187.693
191.587
195.473
199.35
203.209
207.055
210.887
214.698
218.487
222.256
225.999
229.712
233.392
237.039
240.643
244.201
247.709
251.159
254.544
257.855
261.083
264.22
267.252
270.168
272.954
275.597
278.082
280.396
282.524
284.455
286.178
287.688
288.983
290.066
290.945
291.635
292.155
292.528
292.787
292.948
293.03
293.069
293.088
293.095
293.097
293.089
293.07
293.049
293.036
293.03
293.029
293.033
293.044
293.061
293.08
293.095
293.108
293.122
293.134
293.142
293.15
293.157
293.161
293.164
293.169
293.172
293.173
293.174
293.175
293.174
293.173
293.172
293.171
293.17
293.17
293.17
293.171
293.174
293.179
293.192
293.231
293.321
293.492
293.471
293.217
293.043
292.99
293.015
293.054
293.093
293.125
293.146
293.159
293.167
293.171
293.174
293.175
293.172
293.168
293.162
293.161
293.165
293.164
293.16
293.154
293.148
293.142
293.136
293.129
293.122
293.116
293.111
293.106
293.102
293.1
293.101
293.107
293.125
293.163
293.245
293.4
293.557
293.63
293.593
293.343
292.675
291.581
290.398
289.508
2.0197e-012
1.86964e-012
1.86701e-012
2.07334e-012
1.89672e-012
1.90033e-012
1.92575e-012
1.8918e-012
2.25006e-012
2.10594e-012
1.93355e-012
1.84606e-012
1.89226e-012
2.00902e-012
2.13844e-012
2.2558e-012
2.32408e-012
2.40321e-012
2.36836e-012
2.82008e-012
2.45816e-012
2.90507e-012
2.81745e-012
3.02979e-012
3.15279e-012
2.76169e-012
2.8282e-012
2.51131e-012
2.86642e-012
3.01496e-012
2.72076e-012
2.65775e-012
2.76445e-012
2.35106e-012
2.45708e-012
2.14418e-012
2.1357e-012
2.13571e-012
2.2035e-012
2.41973e-012
2.22787e-012
2.16917e-012
2.27234e-012
2.32217e-012
2.26688e-012
2.3381e-012
2.53325e-012
3.01216e-012
2.92788e-012
2.72182e-012
2.48577e-012
2.41261e-012
2.21424e-012
2.18515e-012
2.19474e-012
2.12357e-012
2.29486e-012
2.15535e-012
2.15015e-012
2.18814e-012
2.20768e-012
2.15026e-012
2.11377e-012
2.30668e-012
2.67967e-012
2.78088e-012
2.86044e-012
2.71321e-012
2.7581e-012
2.85198e-012
3.22549e-012
3.56807e-012
3.49279e-012
3.05562e-012
3.49957e-012
3.24085e-012
3.30232e-012
2.86772e-012
3.26215e-012
2.67923e-012
3.57667e-012
4.66903e-012
9.70437e-012
2.24305e-011
5.63588e-011
1.45913e-010
3.76163e-010
9.65092e-010
2.44983e-009
6.14732e-009
1.52441e-008
3.73269e-008
9.02273e-008
2.15238e-007
5.06563e-007
1.17586e-006
2.69122e-006
6.07114e-006
1.34948e-005
2.95445e-005
6.36844e-005
0.000135099
0.000281929
0.000578484
0.0011665
0.00231036
0.00449181
0.00856705
0.016018
0.029338
0.0525951
0.09221
0.157953
0.264107
0.430629
0.684033
1.05756
1.59015
2.3239
3.29979
4.55236
6.10396
7.95998
10.1066
12.5147
15.1477
17.9695
20.9478
24.0553
27.2701
30.5743
33.9541
37.3985
40.8986
44.4474
48.0392
51.6694
55.334
59.0296
62.7535
66.503
70.276
74.0705
77.8845
81.7164
85.5646
89.4277
93.3042
97.1928
101.092
105.001
108.919
112.844
116.776
120.713
124.655
128.601
132.549
136.5
140.451
144.404
148.355
152.307
156.255
160.203
164.144
168.086
172.017
175.949
179.869
183.783
187.693
191.587
195.473
199.35
203.209
207.055
210.887
214.698
218.487
222.256
225.999
229.712
233.392
237.039
240.643
244.201
247.709
251.159
254.544
257.855
261.083
264.22
267.252
270.168
272.954
275.597
278.082
280.396
282.524
284.455
286.178
287.688
288.983
290.066
290.945
291.635
292.155
292.528
292.787
292.948
293.03
293.069
293.088
293.095
293.097
293.089
293.07
293.049
293.036
293.03
293.029
293.033
293.044
293.061
293.08
293.095
293.108
293.122
293.134
293.142
293.15
293.157
293.161
293.164
293.169
293.172
293.173
293.174
293.175
293.174
293.173
293.172
293.171
293.17
293.17
293.17
293.171
293.174
293.179
293.192
293.231
293.321
293.492
293.471
293.217
293.043
292.99
293.015
293.054
293.093
293.125
293.146
293.159
293.167
293.171
293.174
293.175
293.172
293.168
293.162
293.161
293.165
293.164
293.16
293.154
293.148
293.142
293.136
293.129
293.122
293.116
293.111
293.106
293.102
293.099
293.098
293.101
293.112
293.136
293.188
293.294
293.453
293.563
293.585
293.529
293.27
292.726
292.186
291.807
291.837
291.95
292.077
292.161
292.201
292.214
292.215
292.213
292.212
292.212
292.213
292.214
292.215
292.216
292.216
292.216
292.216
292.215
292.214
292.212
292.21
292.207
292.204
292.2
292.195
292.189
292.183
292.175
292.167
292.16
292.147
292.138
292.127
292.11
292.096
292.08
292.064
292.046
292.027
292.007
291.985
291.962
291.937
291.912
291.881
291.85
291.818
291.777
291.744
291.712
291.671
291.627
291.581
291.532
291.481
291.426
291.368
291.307
291.241
291.172
291.099
291.021
290.938
290.849
290.755
290.655
290.548
290.434
290.312
290.181
290.041
289.891
289.729
289.555
289.366
289.162
288.941
288.7
288.437
288.151
287.836
287.488
287.102
286.669
286.179
285.617
284.963
284.19
283.265
282.152
280.806
279.219
277.38
275.355
273.265
271.172
269.154
267.11
264.639
262.769
2.48143
0.968785
0.280973
0.0610839
0.0105976
0.00167163
0.000250501
3.70276e-005
5.45051e-006
8.32244e-007
1.37124e-007
2.57013e-008
5.59573e-009
1.38324e-009
3.70719e-010
1.04139e-010
3.04965e-011
9.65137e-012
3.78035e-012
2.09573e-012
1.44976e-012
1.68063e-012
1.47547e-012
1.50313e-012
1.31424e-012
1.60313e-012
1.48598e-012
1.86557e-012
1.73716e-012
1.98884e-012
1.72066e-012
1.91383e-012
1.89586e-012
1.98512e-012
1.8498e-012
1.86583e-012
1.84442e-012
1.74157e-012
1.68532e-012
1.80269e-012
1.9087e-012
1.74942e-012
1.59932e-012
1.72496e-012
1.68052e-012
1.77633e-012
1.87592e-012
1.76098e-012
1.94841e-012
1.6327e-012
1.82614e-012
1.76007e-012
2.08126e-012
1.7843e-012
2.29486e-012
1.92249e-012
2.34433e-012
1.66178e-012
2.21022e-012
1.55349e-012
2.07672e-012
1.70528e-012
1.79134e-012
1.55967e-012
1.76061e-012
1.72223e-012
1.85875e-012
1.71293e-012
1.82243e-012
1.55112e-012
1.62019e-012
1.68241e-012
1.74235e-012
1.72961e-012
1.78515e-012
1.85508e-012
1.77079e-012
1.94872e-012
1.62981e-012
1.85937e-012
1.74461e-012
1.96856e-012
1.54443e-012
1.78037e-012
1.28691e-012
1.57225e-012
1.17248e-012
1.17644e-012
1.14948e-012
1.11036e-012
1.08615e-012
1.15942e-012
1.07293e-012
1.11541e-012
1.02028e-012
1.07302e-012
1.01744e-012
9.87123e-013
9.87842e-013
1.112e-012
9.62763e-013
9.82213e-013
1.06863e-012
9.51108e-013
1.09818e-012
1.07344e-012
9.94727e-013
1.04318e-012
9.89056e-013
1.15502e-012
9.65136e-013
1.05146e-012
9.9256e-013
1.03848e-012
1.02001e-012
1.0011e-012
1.04667e-012
9.9862e-013
1.02967e-012
9.89554e-013
1.03745e-012
1.01788e-012
1.06197e-012
1.00215e-012
1.02452e-012
1.07795e-012
1.02634e-012
1.26348e-012
1.06079e-012
1.19136e-012
1.03955e-012
1.12275e-012
1.09101e-012
1.03825e-012
1.21876e-012
1.0687e-012
1.06326e-012
1.03006e-012
1.13437e-012
1.04864e-012
1.05787e-012
1.06202e-012
1.04621e-012
1.06553e-012
1.122e-012
1.04547e-012
1.1358e-012
1.06052e-012
1.12384e-012
1.07509e-012
240.853
173.87
75.2494
19.9699
4.04431
0.687095
0.107716
0.0160677
0.00236212
0.000344619
5.19243e-005
8.38125e-006
1.52925e-006
3.23469e-007
7.7924e-008
2.04119e-008
5.58263e-009
1.55697e-009
4.37742e-010
1.23734e-010
3.46114e-011
9.88473e-012
3.1266e-012
1.52938e-012
1.21813e-012
1.201e-012
1.19181e-012
1.17833e-012
1.18727e-012
1.235e-012
1.23653e-012
1.26064e-012
1.4183e-012
1.31612e-012
1.30888e-012
1.31196e-012
1.33188e-012
1.36824e-012
1.30901e-012
1.33262e-012
1.33565e-012
1.33874e-012
1.33982e-012
1.35212e-012
1.5493e-012
1.68286e-012
1.79345e-012
1.83412e-012
2.27132e-012
2.47979e-012
2.43811e-012
2.56952e-012
2.56479e-012
2.37838e-012
2.78906e-012
2.80944e-012
3.01783e-012
2.74585e-012
2.85969e-012
3.12901e-012
2.49559e-012
2.91862e-012
2.50277e-012
2.62479e-012
2.21522e-012
2.48508e-012
2.38107e-012
2.08958e-012
2.11451e-012
1.84006e-012
1.72071e-012
1.46458e-012
1.8854e-012
1.65148e-012
2.00986e-012
1.88787e-012
2.18021e-012
2.0981e-012
2.2458e-012
2.53047e-012
2.86402e-012
2.97166e-012
2.85732e-012
2.95267e-012
2.73122e-012
2.67391e-012
2.96331e-012
2.39416e-012
2.77632e-012
2.01455e-012
2.35564e-012
2.1691e-012
2.01898e-012
2.2354e-012
1.87942e-012
1.9844e-012
2.13757e-012
1.87262e-012
1.71166e-012
1.16296e-012
1.03121e-012
9.24602e-013
9.89794e-013
9.43969e-013
9.92561e-013
9.33493e-013
1.01089e-012
1.05638e-012
1.27255e-012
1.09649e-012
1.17051e-012
9.81419e-013
1.15054e-012
9.91494e-013
1.11607e-012
9.38159e-013
1.0702e-012
9.52691e-013
9.87239e-013
1.00256e-012
1.10332e-012
1.01526e-012
1.03189e-012
1.0246e-012
1.00263e-012
1.00623e-012
1.011e-012
1.04936e-012
1.04559e-012
1.05606e-012
1.05912e-012
1.04695e-012
1.08306e-012
1.05557e-012
1.05486e-012
1.02069e-012
1.02759e-012
1.076e-012
1.05442e-012
1.05807e-012
1.22458e-012
1.29595e-012
1.15757e-012
1.23996e-012
1.27687e-012
1.36409e-012
1.40849e-012
1.19995e-012
1.27375e-012
1.13067e-012
)
;

boundaryField
{
    inlet
    {
        type            calculated;
        value           nonuniform List<scalar> 2(2.0197e-012 1.89489e-012);
    }
    outlet
    {
        type            calculated;
        value           nonuniform List<scalar> 2(1.13067e-012 1.07509e-012);
    }
    bottom
    {
        type            symmetryPlane;
    }
    top
    {
        type            symmetryPlane;
    }
    obstacle
    {
        type            calculated;
        value           nonuniform List<scalar> 
102
(
289.508
2.48143
291.837
291.95
292.077
292.161
292.201
292.214
292.215
292.213
292.212
292.212
292.213
292.214
292.215
292.216
292.216
292.216
292.216
292.215
292.214
292.212
292.21
292.207
292.204
292.2
292.195
292.189
292.183
292.175
292.167
292.16
292.147
292.138
292.127
292.11
292.096
292.08
292.064
292.046
292.027
292.007
291.985
291.962
291.937
291.912
291.881
291.85
291.818
291.777
291.744
291.712
291.671
291.627
291.581
291.532
291.481
291.426
291.368
291.307
291.241
291.172
291.099
291.021
290.938
290.849
290.755
290.655
290.548
290.434
290.312
290.181
290.041
289.891
289.729
289.555
289.366
289.162
288.941
288.7
288.437
288.151
287.836
287.488
287.102
286.669
286.179
285.617
284.963
284.19
283.265
282.152
280.806
279.219
277.38
275.355
273.265
271.172
269.154
267.11
264.639
262.769
)
;
    }
    defaultFaces
    {
        type            empty;
    }
}


// ************************************************************************* //
