/*--------------------------------*- C++ -*----------------------------------*\
| =========                 |                                                 |
| \\      /  F ield         | OpenFOAM: The Open Source CFD Toolbox           |
|  \\    /   O peration     | Version:  5.x                                   |
|   \\  /    A nd           | Web:      www.OpenFOAM.org                      |
|    \\/     M anipulation  |                                                 |
\*---------------------------------------------------------------------------*/
/*   Windows 32 and 64 bit porting by blueCAPE: http://www.bluecape.com.pt   *\
|  Based on Windows porting (2.0.x v4) by Symscape: http://www.symscape.com   |
\*---------------------------------------------------------------------------*/
FoamFile
{
    version     2.0;
    format      ascii;
    class       surfaceScalarField;
    location    "0.005";
    object      phi;
}
// * * * * * * * * * * * * * * * * * * * * * * * * * * * * * * * * * * * * * //

dimensions      [1 0 -1 0 0 0 0];

internalField   nonuniform List<scalar> 
1447
(
8.52651e-014
9.9476e-014
1.98952e-013
1.00052e-013
1.24345e-013
9.67837e-014
3.55271e-014
9.74637e-014
-1.42109e-014
9.93788e-014
1.63425e-013
9.79564e-014
-5.32907e-014
9.87127e-014
-1.24345e-013
9.52641e-014
-2.16716e-013
9.71931e-014
-1.77636e-013
9.64645e-014
-2.55795e-013
9.55486e-014
-2.4869e-013
9.45494e-014
-1.91847e-013
9.82756e-014
-3.6593e-013
9.65755e-014
-3.76588e-013
9.86503e-014
-4.08562e-013
1.00281e-013
-3.48166e-013
1.0307e-013
-1.52767e-013
1.03743e-013
-1.95399e-013
1.04632e-013
-2.55795e-013
1.06283e-013
-2.41585e-013
1.09267e-013
-8.88178e-014
1.0783e-013
3.90799e-014
1.11751e-013
2.41585e-013
1.1055e-013
5.32907e-013
1.15061e-013
6.75016e-013
1.12368e-013
8.59757e-013
1.15359e-013
1.00897e-012
1.12702e-013
9.80549e-013
1.13604e-013
1.08358e-012
1.11237e-013
8.7752e-013
1.14242e-013
7.10543e-013
1.11154e-013
6.64357e-013
1.13194e-013
6.64357e-013
1.11751e-013
3.33955e-013
1.13416e-013
2.45137e-013
1.11786e-013
3.23297e-013
1.12334e-013
4.76064e-013
1.12646e-013
6.78568e-013
1.10786e-013
7.10543e-013
1.09503e-013
7.8515e-013
1.0978e-013
8.06466e-013
1.0969e-013
5.50671e-013
1.07081e-013
4.93827e-013
1.08809e-013
4.86722e-013
1.08413e-013
4.90274e-013
1.08615e-013
2.30926e-013
1.07428e-013
4.1922e-013
1.09031e-013
3.05533e-013
1.10807e-013
4.44089e-013
1.11071e-013
3.44613e-013
1.12195e-013
2.27374e-013
1.10779e-013
2.41585e-013
1.10877e-013
3.41061e-013
1.1148e-013
3.19744e-013
1.12847e-013
1.7053e-013
1.09593e-013
9.23706e-014
1.14284e-013
6.39488e-014
1.10759e-013
2.13163e-014
1.11577e-013
9.9476e-014
1.11348e-013
4.26326e-014
1.10814e-013
2.27374e-013
1.11071e-013
2.45137e-013
1.08351e-013
3.83693e-013
1.09607e-013
4.26326e-013
1.11057e-013
5.64881e-013
1.1148e-013
6.18172e-013
1.1504e-013
4.47642e-013
1.1284e-013
5.29354e-013
1.16053e-013
5.86198e-013
1.14506e-013
4.36984e-013
1.15657e-013
5.15143e-013
1.17184e-013
2.34479e-013
1.18634e-013
3.8014e-013
1.20293e-013
3.12639e-013
1.21486e-013
4.26326e-013
1.20508e-013
4.9738e-013
1.24463e-013
4.26326e-013
1.20987e-013
6.2883e-013
1.25622e-013
1.01252e-012
1.2295e-013
1.54543e-012
1.20536e-013
2.8173e-012
1.22555e-013
6.55831e-012
1.2388e-013
1.67759e-011
1.24005e-013
4.39648e-011
1.26163e-013
1.14625e-010
1.25157e-013
2.96414e-010
1.26364e-013
7.5762e-010
1.28127e-013
1.91444e-009
1.30812e-013
4.77779e-009
1.29868e-013
1.17744e-008
1.32269e-013
2.86472e-008
1.31818e-013
6.87933e-008
1.30493e-013
1.6301e-007
1.29403e-013
3.81031e-007
1.27912e-013
8.78323e-007
1.28474e-013
1.99597e-006
1.27544e-013
4.47007e-006
1.26336e-013
9.86233e-006
1.26892e-013
2.14281e-005
1.254e-013
4.58303e-005
1.24636e-013
9.64494e-005
1.23894e-013
0.00019963
1.22687e-013
0.000406179
1.22874e-013
0.000811982
1.19862e-013
0.00159392
1.18579e-013
0.0030705
1.16754e-013
0.00580082
1.10995e-013
0.0107397
1.1037e-013
0.0194708
1.05534e-013
0.0345377
1.03771e-013
0.0598865
1.00087e-013
0.101408
9.85392e-014
0.167527
9.34461e-014
0.269722
9.20236e-014
0.42279
8.84084e-014
0.644609
8.57231e-014
0.955159
8.05814e-014
1.37467
8.04218e-014
1.92103
7.89438e-014
2.60677
7.67372e-014
3.43633
7.53633e-014
4.40428
7.34968e-014
5.49494
7.20396e-014
6.68646
7.09641e-014
7.95631
6.98955e-014
9.2841
7.06657e-014
10.6526
6.70436e-014
12.0479
6.70922e-014
13.4588
6.7682e-014
14.8768
6.73767e-014
16.295
6.7682e-014
17.7081
6.57599e-014
19.112
6.44901e-014
20.5034
6.40807e-014
21.8797
6.28247e-014
23.2388
6.25472e-014
24.579
6.10276e-014
25.899
5.91957e-014
27.1976
5.72528e-014
28.4738
5.5983e-014
29.7269
5.56361e-014
30.9562
5.51365e-014
32.1611
5.36862e-014
33.3413
5.18474e-014
34.4964
5.02723e-014
35.626
4.93564e-014
36.7298
4.78992e-014
37.8078
4.63726e-014
38.8598
4.54914e-014
39.8856
4.43395e-014
40.8852
4.35416e-014
41.8587
4.28511e-014
42.806
4.11823e-014
43.7272
3.98848e-014
44.6223
3.85594e-014
45.4916
3.70398e-014
46.3351
3.54161e-014
47.1531
3.38583e-014
47.9455
3.27134e-014
48.7133
3.17038e-014
49.4548
3.09162e-014
50.1747
3.0205e-014
50.8636
2.91468e-014
51.5401
2.83593e-014
52.175
2.77035e-014
52.8071
2.67598e-014
53.4008
2.61076e-014
53.9678
2.46192e-014
54.5428
2.29539e-014
55.0461
2.11949e-014
55.568
1.96405e-014
56.0659
1.82424e-014
56.505
1.65805e-014
56.9611
1.48111e-014
57.4001
1.32186e-014
57.781
1.14977e-014
58.1602
9.92956e-015
58.5454
8.21565e-015
58.885
6.71338e-015
59.1886
5.2007e-015
59.5013
3.54924e-015
59.8073
2.22392e-015
60.0695
6.8695e-016
60.3021
-7.04298e-016
60.5391
-1.99493e-015
60.7745
-3.40353e-015
60.9758
-4.5762e-015
61.1419
-5.97786e-015
61.301
-7.20257e-015
61.4658
-8.33014e-015
61.6169
-9.16281e-015
61.7335
-1.01776e-014
61.8241
-1.10363e-014
61.9127
-1.19037e-014
62.0069
-1.25143e-014
62.0886
-1.30972e-014
62.1419
-1.36471e-014
62.1741
-1.40339e-014
62.2013
-1.46064e-014
62.2316
-1.52083e-014
62.2635
-1.5838e-014
62.2872
-1.61e-014
62.2872
-1.6669e-014
62.2671
-1.73229e-014
62.2562
-1.79978e-014
62.2689
-1.87281e-014
62.2815
-1.94098e-014
62.2746
-1.99805e-014
62.2573
-2.05686e-014
62.2366
-2.09572e-014
62.2263
-2.12989e-014
62.2281
-2.18072e-014
62.2312
-2.2234e-014
62.2313
-2.26954e-014
62.228
-2.31308e-014
62.2134
-2.36599e-014
62.202
-2.42167e-014
62.1958
-2.48482e-014
62.1934
-2.515e-014
62.1929
-2.54935e-014
62.1918
-2.57849e-014
62.1857
-2.5974e-014
62.1714
-2.61909e-014
62.1597
-2.63626e-014
62.1516
-2.65482e-014
62.1459
-2.67043e-014
62.1418
-2.69021e-014
62.1361
-2.69923e-014
62.1228
-2.71137e-014
62.1061
-2.7282e-014
62.0912
-2.76498e-014
62.0816
-2.78735e-014
62.0748
-2.81077e-014
62.0673
-2.82691e-014
62.049
-2.83905e-014
62.023
-2.85692e-014
62.0007
-2.87114e-014
61.9855
-2.87756e-014
61.9719
-2.90601e-014
61.9516
-2.93446e-014
61.9202
-2.98095e-014
61.8794
-3.00576e-014
61.8352
-3.03195e-014
61.7947
-3.0656e-014
61.7629
-3.07514e-014
61.7421
-3.09926e-014
61.7305
-3.16518e-014
61.7237
-3.2226e-014
61.7147
-3.28522e-014
61.6958
-3.35374e-014
61.623
-3.43146e-014
61.275
-3.51472e-014
60.0614
-3.59834e-014
57.2063
-3.59001e-014
54.0399
-3.53086e-014
50.9352
-3.47118e-014
48.099
-3.39902e-014
45.6701
-3.35183e-014
43.6979
-3.32772e-014
42.1687
-3.31003e-014
41.0328
-3.30968e-014
40.2246
-3.31419e-014
39.6751
-3.31696e-014
39.3201
-3.33518e-014
39.1044
-3.3416e-014
38.9837
-3.35704e-014
38.9234
-3.3782e-014
38.8994
-3.39607e-014
38.8935
-3.39971e-014
38.8952
-3.40752e-014
38.9086
-3.4181e-014
38.9196
-3.43493e-014
38.9268
-3.52895e-014
38.931
-3.73382e-014
38.9326
-4.49033e-014
38.9326
-1.28427e-013
38.9318
-5.59811e-013
38.9294
-1.7468e-012
38.9266
-8.24327e-012
38.9237
-5.86253e-011
38.9207
-2.30961e-010
38.9175
-9.54993e-010
38.9143
-6.54972e-009
38.9114
-3.96925e-008
38.9092
-1.5908e-007
38.908
-5.31543e-007
38.9075
-1.37716e-006
38.908
-3.13246e-006
38.9099
-6.91413e-006
38.9142
-1.48602e-005
38.9237
-3.10495e-005
38.9245
-5.87228e-005
38.9008
-6.34895e-005
38.8692
-6.89949e-005
38.8376
-4.71131e-005
38.8103
5.84123e-006
38.7596
0.00020296
38.7196
0.000497172
0.000919345
-1.22213e-012
2.84217e-014
2.07478e-012
1.10845e-012
-1.08002e-012
-1.62004e-012
-1.42109e-012
-3.09797e-012
-4.3201e-012
-2.52953e-012
-1.62004e-012
1.42109e-013
2.75691e-012
2.50111e-012
4.80327e-012
4.3201e-012
4.43379e-012
4.91696e-012
5.79803e-012
6.33804e-012
6.22435e-012
6.6791e-012
7.02016e-012
8.07177e-012
7.36122e-012
6.70752e-012
5.20117e-012
5.28644e-012
7.02016e-012
7.02016e-012
5.88329e-012
6.22435e-012
4.49063e-012
3.95062e-012
2.16005e-012
9.37916e-013
5.40012e-013
1.67688e-012
3.06954e-012
3.58114e-012
1.98952e-012
2.72848e-012
3.63798e-012
3.69482e-012
3.06954e-012
4.29168e-012
6.08225e-012
7.92966e-012
6.05382e-012
5.17275e-012
3.9222e-012
3.43903e-012
1.22213e-012
1.90425e-012
9.9476e-013
1.19371e-012
9.9476e-013
-7.95808e-013
-5.40012e-013
-1.84741e-012
-1.76215e-012
-5.68434e-013
1.76215e-012
4.37694e-012
6.19593e-012
6.79279e-012
5.74119e-012
5.99698e-012
5.94014e-012
7.13385e-012
9.40759e-012
1.01181e-011
8.52651e-012
7.44649e-012
9.40759e-012
7.67386e-012
7.04858e-012
7.24754e-012
6.33804e-012
6.05382e-012
1.13403e-011
2.11458e-011
4.88001e-011
1.2173e-010
3.12269e-010
8.08086e-010
2.08092e-009
5.31224e-009
1.34069e-008
3.34479e-008
8.24225e-008
2.00529e-007
4.8155e-007
1.14107e-006
2.66722e-006
6.14826e-006
1.39718e-005
3.12905e-005
6.90363e-005
0.000149997
0.000320812
0.000675146
0.00139741
0.00284325
0.00568387
0.0111574
0.0214935
0.0406058
0.0751782
0.136295
0.241764
0.419206
0.709856
1.17269
1.88805
2.95953
4.51226
6.68611
9.62272
13.4472
18.2474
24.0543
30.83
38.4646
46.8052
55.6941
64.9887
74.5683
84.3352
94.2119
104.138
114.065
123.957
133.784
143.524
153.158
162.672
172.053
181.293
190.383
199.316
208.088
216.693
225.128
233.389
241.475
249.382
257.109
264.655
272.018
279.199
286.197
293.011
299.642
306.09
312.356
318.441
324.346
330.072
335.619
340.993
346.183
351.223
356.045
360.781
365.225
369.65
373.806
377.775
381.8
385.322
388.976
392.461
395.535
398.728
401.801
404.467
407.121
409.818
412.195
414.32
416.509
418.651
420.487
422.115
423.774
425.422
426.831
427.993
429.107
430.26
431.318
432.134
432.769
433.389
434.048
434.62
434.994
435.219
435.409
435.621
435.844
436.011
436.01
435.87
435.794
435.882
435.97
435.922
435.801
435.656
435.584
435.597
435.618
435.619
435.596
435.494
435.414
435.371
435.354
435.35
435.343
435.3
435.2
435.118
435.061
435.021
434.993
434.953
434.859
434.743
434.638
434.571
434.524
434.471
434.343
434.161
434.005
433.899
433.803
433.661
433.441
433.156
432.847
432.563
432.341
432.194
432.113
432.066
432.003
431.87
431.361
428.925
420.43
400.444
378.279
356.547
336.693
319.691
305.885
295.181
287.23
281.572
277.726
275.241
273.731
272.886
272.464
272.295
272.254
272.267
272.36
272.437
272.488
272.517
272.528
272.528
272.522
272.506
272.486
272.466
272.445
272.422
272.4
272.379
272.364
272.354
272.35
272.349
272.356
272.374
272.414
272.468
272.373
272.285
272.166
271.994
271.816
271.798
271.796
271.806
271.819
271.833
271.853
271.879
271.914
271.956
272.005
272.056
272.109
272.161
272.212
272.263
272.312
272.362
272.41
272.458
272.505
272.55
272.594
272.634
272.67
272.702
272.729
272.748
272.76
272.761
272.751
272.73
272.693
272.636
272.566
272.463
272.334
272.175
271.988
271.775
271.539
271.285
271.023
270.761
270.512
270.283
270.089
269.929
269.825
269.758
269.744
269.802
269.909
270.061
270.249
270.462
270.691
270.924
271.151
271.364
271.553
271.713
271.838
271.926
271.973
271.979
271.945
271.872
271.76
271.612
271.43
271.216
270.971
270.697
270.394
270.064
269.706
269.32
268.904
268.458
267.978
267.461
266.904
266.303
265.649
264.937
264.156
263.296
262.341
261.277
260.077
258.716
257.175
255.395
253.405
251.111
248.596
245.791
242.758
239.29
235.416
230.748
225.109
0.0143075
-0.0303882
0.00448666
-0.00898403
0.00101037
-0.00206769
0.000199331
-0.000407125
3.67316e-005
-6.88871e-005
6.40376e-006
-1.08366e-005
1.07726e-006
-1.62313e-006
1.77911e-007
-2.39145e-007
2.98195e-008
-3.48968e-008
5.29983e-009
-5.23999e-009
1.05649e-009
-8.38843e-010
2.43909e-010
-1.51109e-010
6.39022e-011
-3.15303e-011
1.81002e-011
-7.52184e-012
5.33573e-012
-1.96275e-012
1.61515e-012
-5.39341e-013
5.10703e-013
-1.54194e-013
1.79856e-013
-4.72287e-014
8.57092e-014
-1.70879e-014
5.24025e-014
-8.3566e-015
4.75175e-014
-5.7801e-015
6.61693e-014
-5.12481e-015
5.32907e-014
-4.82383e-015
4.88498e-014
-4.85549e-015
4.52971e-014
-4.75748e-015
5.77316e-014
-4.88715e-015
7.72715e-014
-4.77092e-015
8.21565e-014
-4.82817e-015
8.43769e-014
-4.79868e-015
9.14824e-014
-4.92271e-015
7.68274e-014
-4.92965e-015
8.83738e-014
-4.97128e-015
9.68114e-014
-5.10703e-015
7.90479e-014
-5.25491e-015
8.9706e-014
-5.18075e-015
7.50511e-014
-5.32083e-015
7.77156e-014
-5.27529e-015
6.9722e-014
-5.30348e-015
6.21725e-014
-5.38241e-015
8.65974e-014
-5.42188e-015
7.37188e-014
-5.42101e-015
5.68434e-014
-5.51035e-015
5.72875e-014
-5.58971e-015
5.86198e-014
-5.60879e-015
6.61693e-014
-5.61703e-015
7.4607e-014
-5.66647e-015
6.70575e-014
-5.64913e-015
7.86038e-014
-5.73543e-015
6.70575e-014
-5.68122e-015
5.59552e-014
-5.70724e-015
7.81597e-014
-5.59188e-015
7.72715e-014
-5.54851e-015
8.79297e-014
-5.54288e-015
8.92619e-014
-5.51989e-015
1.01252e-013
-5.59795e-015
1.07025e-013
-5.45961e-015
8.57092e-014
-5.47565e-015
8.70415e-014
-5.45093e-015
7.86038e-014
-5.35769e-015
7.50511e-014
-5.34772e-015
8.08242e-014
-5.3243e-015
8.34888e-014
-5.18639e-015
6.17284e-014
-5.14866e-015
6.75016e-014
-5.18726e-015
7.23865e-014
-5.10529e-015
8.43769e-014
-5.0797e-015
7.9492e-014
-5.01812e-015
7.90479e-014
-5.00815e-015
7.01661e-014
-4.91491e-015
6.35048e-014
-4.97475e-015
6.70575e-014
-4.87891e-015
7.50511e-014
-4.9522e-015
7.06102e-014
-4.91577e-015
8.12683e-014
-4.94223e-015
8.39329e-014
-4.96131e-015
8.34888e-014
-4.91577e-015
8.52651e-014
-4.95784e-015
8.30447e-014
-4.95871e-015
7.54952e-014
-4.91968e-015
7.86038e-014
-4.89149e-015
8.52651e-014
-4.85332e-015
8.61533e-014
-4.86503e-015
6.39488e-014
-4.85246e-015
6.21725e-014
-4.78697e-015
5.24025e-014
-4.78046e-015
3.68594e-014
-4.61089e-015
1.9984e-014
-4.77006e-015
2.22045e-015
-4.54888e-015
-6.21725e-015
-4.55582e-015
8.43769e-015
-4.50334e-015
1.46549e-014
-4.45304e-015
8.43769e-015
-4.34158e-015
7.99361e-015
-4.31773e-015
2.35367e-014
-4.17244e-015
2.04281e-014
-4.14686e-015
1.06581e-014
-4.0792e-015
1.28786e-014
-4.09091e-015
-4.44089e-016
-4.02803e-015
-1.5099e-014
-4.00244e-015
-1.90958e-014
-3.93088e-015
-8.43769e-015
-3.8706e-015
8.43769e-015
-3.84718e-015
2.26485e-014
-3.89272e-015
1.11022e-014
-3.77693e-015
1.77636e-015
-4.01328e-015
-1.11022e-014
-3.86626e-015
-4.44089e-015
-3.87667e-015
-1.02141e-014
-3.88058e-015
-1.77636e-014
-3.91787e-015
-1.68754e-014
-3.96818e-015
-5.32907e-015
-3.84241e-015
-1.19904e-014
-4.01675e-015
-1.06581e-014
-3.93045e-015
-1.55431e-014
-3.95777e-015
-6.66134e-015
-4.00244e-015
-3.55271e-015
-3.96688e-015
-5.32907e-015
-4.09048e-015
-1.77636e-015
-3.95907e-015
-3.55271e-015
-4.04624e-015
-1.15463e-014
-3.93999e-015
-5.32907e-015
-3.9556e-015
-1.37668e-014
-4.04277e-015
-1.06581e-014
-3.94953e-015
3.10862e-015
-3.98553e-015
1.64313e-014
-4.05708e-015
1.77636e-015
-4.08874e-015
2.17604e-014
-4.00938e-015
8.43769e-015
-4.08007e-015
1.11022e-014
-4.00244e-015
1.02141e-014
-4.18459e-015
4.44089e-015
-4.06532e-015
9.32587e-015
-4.08614e-015
-1.37668e-014
-4.2002e-015
-1.95399e-014
-4.1551e-015
-2.17604e-014
-4.20367e-015
-5.32907e-015
-4.26569e-015
-8.88178e-015
-4.14686e-015
-1.02141e-014
-4.1577e-015
-1.73195e-014
-4.19239e-015
7.10543e-015
-4.21408e-015
-2.66454e-015
-4.24834e-015
-5.32907e-015
-4.23836e-015
-8.88178e-016
-4.23186e-015
-1.37668e-014
-4.31339e-015
-1.33227e-014
-4.30775e-015
-6.21725e-015
-4.21321e-015
-1.06581e-014
-4.42918e-015
-8.88178e-015
-4.27783e-015
-8.88178e-015
-4.30385e-015
-4.32467e-015
159.909
70.223
20.7959
4.26672
0.72194
0.113166
0.0170784
0.00250278
0.000363459
5.3275e-005
8.20829e-006
1.39896e-006
2.77197e-007
6.39171e-008
1.63704e-008
4.43201e-009
1.2307e-009
3.4548e-010
9.74154e-011
2.75122e-011
7.68097e-012
2.21689e-012
7.10543e-013
2.34479e-013
1.13687e-013
1.35003e-013
6.03961e-014
-1.42109e-014
-9.23706e-014
-9.59233e-014
-9.9476e-014
-2.38032e-013
-2.66454e-013
-1.13687e-013
-1.59872e-013
-1.10134e-013
-1.84741e-013
-1.1724e-013
0
6.75016e-014
4.26326e-014
1.06581e-014
3.90799e-014
2.20268e-013
4.08562e-013
4.44089e-013
5.08038e-013
7.14095e-013
8.63309e-013
9.13047e-013
9.05942e-013
9.69891e-013
9.05942e-013
9.59233e-013
1.06581e-012
1.19371e-012
1.09068e-012
1.06581e-012
1.14042e-012
1.13332e-012
1.03384e-012
1.04805e-012
9.80549e-013
8.95284e-013
8.70415e-013
8.91731e-013
8.66862e-013
7.8515e-013
6.46594e-013
5.68434e-013
4.40536e-013
4.9738e-013
5.82645e-013
5.79092e-013
6.75016e-013
7.42517e-013
7.10543e-013
8.02913e-013
8.91731e-013
1.09424e-012
1.14397e-012
1.1724e-012
1.18305e-012
1.10134e-012
1.08713e-012
1.12266e-012
1.08713e-012
1.03739e-012
9.23706e-013
8.59757e-013
8.41993e-013
8.20677e-013
8.31335e-013
7.49623e-013
7.35412e-013
8.06466e-013
7.14095e-013
7.10543e-013
4.76064e-013
2.55795e-013
1.24345e-013
-7.10543e-014
-1.10134e-013
-1.03029e-013
-1.03029e-013
-8.52651e-014
-1.98952e-013
-2.91323e-013
-3.09086e-013
-2.73559e-013
-1.88294e-013
-1.63425e-013
-2.27374e-013
-1.56319e-013
-1.35003e-013
-1.45661e-013
-6.75016e-014
-6.39488e-014
-8.17124e-014
-1.95399e-013
-1.95399e-013
-1.20792e-013
-1.66978e-013
-1.49214e-013
-9.23706e-014
-1.10134e-013
-1.42109e-013
-1.45661e-013
-1.38556e-013
-1.42109e-013
-1.59872e-013
-1.7053e-013
-1.91847e-013
-1.1724e-013
-9.9476e-014
-1.24345e-013
-1.42109e-013
-1.3145e-013
-1.20792e-013
-2.13163e-013
-3.55271e-013
-2.8777e-013
-2.34479e-013
-3.33955e-013
-3.41061e-013
-4.29878e-013
-3.55271e-013
-2.66454e-013
-2.0961e-013
)
;

boundaryField
{
    inlet
    {
        type            calculated;
        value           nonuniform List<scalar> 2(2.58442e-012 2.61934e-014);
    }
    outlet
    {
        type            calculated;
        value           nonuniform List<scalar> 2(-1.89175e-013 3.03165e-015);
    }
    bottom
    {
        type            symmetryPlane;
        value           uniform 0;
    }
    top
    {
        type            symmetryPlane;
        value           uniform 0;
    }
    obstacle
    {
        type            calculated;
        value           nonuniform List<scalar> 
102
(
38.7639
-0.0133351
-7.08027e-005
-6.89151e-005
-6.69727e-005
-6.49756e-005
-6.29248e-005
-6.08088e-005
-5.86256e-005
-5.63648e-005
-5.40264e-005
-5.16029e-005
-4.90945e-005
-4.6494e-005
-4.38008e-005
-4.10072e-005
-3.81107e-005
-3.51025e-005
-3.19779e-005
-2.87266e-005
-2.53417e-005
-2.18118e-005
-1.8128e-005
-1.42785e-005
-1.02539e-005
-6.04376e-006
-1.64025e-006
2.96297e-006
7.76921e-006
1.2777e-005
1.79816e-005
2.33696e-005
2.89251e-005
3.46186e-005
4.04179e-005
4.62811e-005
5.2153e-005
5.79822e-005
6.36968e-005
6.92349e-005
7.4516e-005
7.9473e-005
8.40265e-005
8.81133e-005
9.16637e-005
9.46245e-005
9.69461e-005
9.85955e-005
9.95438e-005
9.97837e-005
9.93122e-005
9.8158e-005
9.63425e-005
9.39064e-005
9.09018e-005
8.73899e-005
8.34399e-005
7.91261e-005
7.45266e-005
6.97206e-005
6.47859e-005
5.97978e-005
5.48264e-005
4.99357e-005
4.51818e-005
4.06132e-005
3.6269e-005
3.21802e-005
2.83688e-005
2.4849e-005
2.16275e-005
1.87045e-005
1.60745e-005
1.37276e-005
1.16499e-005
9.82473e-006
8.23377e-006
6.85734e-006
5.67514e-006
4.66734e-006
3.81428e-006
3.09735e-006
2.49913e-006
2.00345e-006
1.59561e-006
1.26241e-006
9.92075e-007
7.74329e-007
6.00147e-007
4.61851e-007
3.52801e-007
2.67469e-007
2.01171e-007
1.50036e-007
1.10905e-007
8.11751e-008
5.87742e-008
4.20554e-008
2.97308e-008
2.07157e-008
1.42719e-008
9.68625e-009
)
;
    }
    defaultFaces
    {
        type            empty;
        value           nonuniform 0();
    }
}


// ************************************************************************* //
