/*--------------------------------*- C++ -*----------------------------------*\
| =========                 |                                                 |
| \\      /  F ield         | OpenFOAM: The Open Source CFD Toolbox           |
|  \\    /   O peration     | Version:  5.x                                   |
|   \\  /    A nd           | Web:      www.OpenFOAM.org                      |
|    \\/     M anipulation  |                                                 |
\*---------------------------------------------------------------------------*/
/*   Windows 32 and 64 bit porting by blueCAPE: http://www.bluecape.com.pt   *\
|  Based on Windows porting (2.0.x v4) by Symscape: http://www.symscape.com   |
\*---------------------------------------------------------------------------*/
FoamFile
{
    version     2.0;
    format      ascii;
    class       volScalarField;
    location    "0.005";
    object      T;
}
// * * * * * * * * * * * * * * * * * * * * * * * * * * * * * * * * * * * * * //

dimensions      [0 0 0 1 0 0 0];

internalField   nonuniform List<scalar> 
1000
(
348.432
348.432
348.432
348.432
348.432
348.432
348.432
348.432
348.432
348.432
348.432
348.432
348.432
348.432
348.432
348.432
348.432
348.432
348.432
348.432
348.432
348.432
348.432
348.432
348.432
348.432
348.432
348.432
348.432
348.432
348.432
348.432
348.432
348.432
348.432
348.432
348.432
348.432
348.432
348.432
348.432
348.432
348.432
348.432
348.432
348.432
348.432
348.432
348.432
348.432
348.432
348.432
348.432
348.432
348.432
348.432
348.432
348.432
348.432
348.432
348.432
348.432
348.432
348.432
348.432
348.432
348.432
348.432
348.432
348.432
348.432
348.432
348.432
348.432
348.432
348.432
348.432
348.432
348.432
348.432
348.432
348.432
348.432
348.432
348.432
348.432
348.432
348.432
348.432
348.432
348.432
348.432
348.432
348.432
348.432
348.432
348.432
348.432
348.432
348.432
348.432
348.432
348.432
348.432
348.432
348.431
348.43
348.429
348.426
348.421
348.413
348.398
348.374
348.335
348.274
348.18
348.042
347.845
347.573
347.21
346.745
346.167
345.476
344.676
343.78
342.802
341.756
340.655
339.508
338.325
337.112
335.874
334.615
333.339
332.048
330.745
329.431
328.107
326.775
325.436
324.091
322.74
321.385
320.026
318.663
317.298
315.93
314.56
313.189
311.817
310.445
309.072
307.7
306.328
304.958
303.589
302.221
300.856
299.493
298.131
296.776
295.414
294.082
292.689
291.441
289.92
288.882
287.139
286.276
284.578
283.408
282.235
280.654
279.521
278.326
276.831
275.617
274.502
273.128
271.79
270.682
269.519
268.182
266.938
265.859
264.751
263.514
262.309
261.264
260.265
259.194
258.073
257.051
256.165
255.317
254.42
253.513
252.718
252.056
251.465
250.889
250.334
249.819
249.411
249.177
249.026
248.813
248.568
248.435
248.428
248.453
248.472
248.469
248.451
248.443
248.448
248.488
248.55
248.588
248.603
248.606
248.609
248.621
248.664
248.715
248.747
248.762
248.769
248.782
248.813
248.878
248.946
248.996
249.021
249.04
249.084
249.178
249.282
249.352
249.397
249.454
249.553
249.7
249.876
250.052
250.201
250.307
250.37
250.401
250.426
250.475
250.637
251.355
254.177
262.799
277.491
294.476
312.53
330.298
346.669
360.803
372.277
381.054
387.382
391.674
394.399
395.997
396.839
397.21
397.319
397.311
397.221
397.085
396.985
396.922
396.888
396.875
396.874
396.882
396.9
396.918
396.938
396.961
396.985
397.008
397.026
397.038
397.04
397.037
397.024
396.994
396.939
396.859
396.909
396.963
397.094
397.486
397.807
398.744
398.452
348.432
348.432
348.432
348.432
348.432
348.432
348.432
348.432
348.432
348.432
348.432
348.432
348.432
348.432
348.432
348.432
348.432
348.432
348.432
348.432
348.432
348.432
348.432
348.432
348.432
348.432
348.432
348.432
348.432
348.432
348.432
348.432
348.432
348.432
348.432
348.432
348.432
348.432
348.432
348.432
348.432
348.432
348.432
348.432
348.432
348.432
348.432
348.432
348.432
348.432
348.432
348.432
348.432
348.432
348.432
348.432
348.432
348.432
348.432
348.432
348.432
348.432
348.432
348.432
348.432
348.432
348.432
348.432
348.432
348.432
348.432
348.432
348.432
348.432
348.432
348.432
348.432
348.432
348.432
348.432
348.432
348.432
348.432
348.432
348.432
348.432
348.432
348.432
348.432
348.432
348.432
348.432
348.432
348.432
348.432
348.432
348.432
348.432
348.432
348.432
348.432
348.432
348.432
348.432
348.432
348.431
348.43
348.429
348.426
348.421
348.413
348.398
348.374
348.335
348.274
348.18
348.042
347.845
347.573
347.21
346.745
346.167
345.476
344.676
343.78
342.802
341.756
340.655
339.508
338.325
337.112
335.874
334.615
333.339
332.048
330.745
329.431
328.107
326.775
325.436
324.091
322.74
321.385
320.026
318.663
317.298
315.93
314.56
313.189
311.817
310.445
309.072
307.7
306.328
304.958
303.589
302.221
300.856
299.493
298.131
296.776
295.414
294.082
292.689
291.441
289.92
288.882
287.139
286.276
284.578
283.408
282.235
280.654
279.521
278.326
276.831
275.617
274.502
273.128
271.79
270.682
269.519
268.182
266.938
265.859
264.751
263.514
262.309
261.264
260.265
259.194
258.073
257.051
256.165
255.317
254.42
253.513
252.718
252.056
251.465
250.889
250.334
249.819
249.411
249.177
249.026
248.813
248.568
248.435
248.428
248.453
248.472
248.469
248.451
248.443
248.448
248.488
248.55
248.588
248.603
248.606
248.609
248.621
248.664
248.715
248.747
248.762
248.769
248.782
248.813
248.878
248.946
248.996
249.021
249.04
249.084
249.178
249.282
249.352
249.397
249.454
249.553
249.7
249.876
250.052
250.201
250.307
250.37
250.401
250.426
250.475
250.637
251.355
254.177
262.799
277.491
294.476
312.53
330.298
346.669
360.803
372.277
381.054
387.382
391.674
394.399
395.997
396.839
397.21
397.319
397.311
397.221
397.085
396.985
396.922
396.888
396.875
396.874
396.882
396.9
396.918
396.938
396.961
396.985
397.008
397.027
397.039
397.044
397.042
397.036
397.019
396.983
396.915
396.902
396.922
396.986
397.198
397.325
397.696
397.706
397.693
397.665
397.592
397.538
397.473
397.416
397.331
397.252
397.15
397.058
396.951
396.858
396.752
396.66
396.555
396.463
396.357
396.264
396.159
396.067
395.965
395.878
395.784
395.707
395.624
395.563
395.5
395.464
395.43
395.427
395.425
395.473
395.527
395.62
395.776
395.947
396.182
396.427
396.721
397.016
397.33
397.618
397.89
398.11
398.274
398.365
398.373
398.313
398.191
397.933
397.599
397.2
396.749
396.261
395.751
395.235
394.728
394.24
393.782
393.362
392.984
392.652
392.366
392.125
391.927
391.769
391.646
391.555
391.49
391.447
391.422
391.408
391.407
391.41
391.415
391.418
391.424
391.416
391.406
391.389
391.356
391.309
391.249
391.17
391.079
390.963
390.845
390.697
390.564
390.406
390.247
390.107
389.878
389.636
389.251
388.607
387.508
386.653
384.711
383.424
279.03
278.814
278.759
278.749
278.746
278.746
278.746
278.746
278.746
278.746
278.746
278.746
278.746
278.746
278.746
278.746
278.746
278.746
278.746
278.746
278.746
278.746
278.746
278.746
278.746
278.746
278.746
278.746
278.746
278.746
278.746
278.746
278.746
278.746
278.746
278.746
278.746
278.746
278.746
278.746
278.746
278.746
278.746
278.746
278.746
278.746
278.746
278.746
278.746
278.746
278.746
278.746
278.746
278.746
278.746
278.746
278.746
278.746
278.746
278.746
278.746
278.746
278.746
278.746
278.746
278.746
278.746
278.746
278.746
278.746
278.746
278.746
278.746
278.746
278.746
278.746
278.746
278.746
278.746
278.746
278.746
278.746
278.746
278.746
278.746
278.746
278.746
278.746
278.746
278.746
278.746
278.746
278.746
278.746
278.746
278.746
278.746
278.746
278.746
278.746
278.746
278.746
278.746
278.746
278.746
278.746
278.746
278.746
278.746
278.746
278.746
278.746
278.746
278.746
278.746
278.746
278.746
278.746
278.746
278.746
278.746
278.746
278.746
278.746
278.746
278.746
278.746
278.746
278.746
278.746
278.746
278.746
278.746
278.746
278.746
278.746
278.746
278.746
278.746
278.746
278.746
278.746
278.746
278.746
278.746
278.746
278.746
278.746
278.746
278.746
377.412
342.22
302.6
284.639
279.827
278.924
278.773
278.75
278.747
278.746
278.746
278.746
278.746
278.746
278.746
278.746
278.746
278.746
278.746
278.746
278.746
278.746
278.746
278.746
278.746
278.746
278.746
278.746
278.746
278.746
278.746
278.746
278.746
278.746
278.746
278.746
278.746
278.746
278.746
278.746
278.746
278.746
278.746
278.746
278.746
278.746
278.746
278.746
278.746
278.746
278.746
278.746
278.746
278.746
278.746
278.746
278.746
278.746
278.746
278.746
278.746
278.746
278.746
278.746
278.746
278.746
278.746
278.746
278.746
278.746
278.746
278.746
278.746
278.746
278.746
278.746
278.746
278.746
278.746
278.746
278.746
278.746
278.746
278.746
278.746
278.746
278.746
278.746
278.746
278.746
278.746
278.746
278.746
278.746
278.746
278.746
278.746
278.746
278.746
278.746
278.746
278.746
278.746
278.746
278.746
278.746
278.746
278.746
278.746
278.746
278.746
278.746
278.746
278.746
278.746
278.746
278.746
278.746
278.746
278.746
278.746
278.746
278.746
278.746
278.746
278.746
278.746
278.746
278.746
278.746
278.746
278.746
278.746
278.746
278.746
278.746
278.746
278.746
278.746
278.746
278.746
278.746
278.746
278.746
278.746
278.746
278.746
278.746
278.746
278.746
)
;

boundaryField
{
    inlet
    {
        type            zeroGradient;
    }
    outlet
    {
        type            zeroGradient;
    }
    bottom
    {
        type            symmetryPlane;
    }
    top
    {
        type            symmetryPlane;
    }
    obstacle
    {
        type            zeroGradient;
    }
    defaultFaces
    {
        type            empty;
    }
}


// ************************************************************************* //
