/*--------------------------------*- C++ -*----------------------------------*\
| =========                 |                                                 |
| \\      /  F ield         | OpenFOAM: The Open Source CFD Toolbox           |
|  \\    /   O peration     | Version:  5.x                                   |
|   \\  /    A nd           | Web:      www.OpenFOAM.org                      |
|    \\/     M anipulation  |                                                 |
\*---------------------------------------------------------------------------*/
/*   Windows 32 and 64 bit porting by blueCAPE: http://www.bluecape.com.pt   *\
|  Based on Windows porting (2.0.x v4) by Symscape: http://www.symscape.com   |
\*---------------------------------------------------------------------------*/
FoamFile
{
    version     2.0;
    format      ascii;
    class       volScalarField;
    location    "0.007";
    object      mag(U);
}
// * * * * * * * * * * * * * * * * * * * * * * * * * * * * * * * * * * * * * //

dimensions      [0 1 -1 0 0 0 0];

internalField   nonuniform List<scalar> 
100
(
17.4512
69.9848
154.421
222.441
265.804
283.315
16.791
66.6234
152.647
229.584
279.878
297.747
16.6737
65.8385
150.041
222.29
270.798
292.88
16.496
64.8375
149.677
224.647
274.645
298.395
16.4033
64.2736
148.556
222.756
273.189
300.668
16.1471
63.0015
147.934
224.08
276.076
317.872
16.7063
65.8329
151.182
226.845
276.836
313.697
15.9763
62.2071
147.104
223.84
276.485
316.043
16.8903
67.0684
152.603
227.95
277.776
307.472
16.2928
64.0988
148.041
223.629
273.105
304.34
333.713
344.669
327.143
337.159
330.846
343.061
315.226
319.622
314.231
321.91
161.283
173.458
113.869
252.841
225.414
126.764
315.321
284.666
146.312
339.886
314.641
162.651
349.375
326.243
169.219
348.23
329.275
172.025
342.05
329.283
168.957
349.352
334.478
173.12
320.701
306.573
169.319
326.942
320.69
186.706
)
;

boundaryField
{
    inlet
    {
        type            calculated;
        value           nonuniform List<scalar> 10(16.1471 16.7063 15.9763 16.8903 16.2928 17.4512 16.791 16.6737 16.496 16.4033);
    }
    outlet
    {
        type            calculated;
        value           nonuniform List<scalar> 10(172.025 168.957 173.12 169.319 186.706 113.869 126.764 146.312 162.651 169.219);
    }
    bottom
    {
        type            symmetryPlane;
    }
    top
    {
        type            symmetryPlane;
    }
    obstacle
    {
        type            calculated;
        value           nonuniform List<scalar> 
12
(
283.315
297.747
292.88
298.395
300.668
161.283
252.841
315.321
339.886
349.375
333.713
344.669
)
;
    }
    defaultFaces
    {
        type            empty;
    }
}


// ************************************************************************* //
