/*--------------------------------*- C++ -*----------------------------------*\
| =========                 |                                                 |
| \\      /  F ield         | OpenFOAM: The Open Source CFD Toolbox           |
|  \\    /   O peration     | Version:  5.x                                   |
|   \\  /    A nd           | Web:      www.OpenFOAM.org                      |
|    \\/     M anipulation  |                                                 |
\*---------------------------------------------------------------------------*/
/*   Windows 32 and 64 bit porting by blueCAPE: http://www.bluecape.com.pt   *\
|  Based on Windows porting (2.0.x v4) by Symscape: http://www.symscape.com   |
\*---------------------------------------------------------------------------*/
FoamFile
{
    version     2.0;
    format      ascii;
    class       volScalarField;
    location    "0.007";
    object      p;
}
// * * * * * * * * * * * * * * * * * * * * * * * * * * * * * * * * * * * * * //

dimensions      [1 -1 -2 0 0 0 0];

internalField   nonuniform List<scalar> 
100
(
92607.8
74769.5
52077
38230
33660.5
33077.2
92779.5
75470.5
53281.5
39184.3
34155
33223
92820.3
75639.9
53414.6
39201.3
33994.9
33033.6
92878.4
75874.1
53851.4
39571.6
34161.9
33070.7
92902.2
75980
53952.4
39627.7
34145
33019.9
92976.2
76268.1
54458.9
40030.5
34203.9
32985.6
92772.2
75618.3
53232.1
38861.5
33617.1
32571.3
93020.8
76451.7
54571.6
40312.3
34647.6
33358.1
92607.7
75041.6
51570.9
37073.1
31426.4
30683.6
93028.8
76386.1
54806.2
40657.5
35230.7
34755.4
31435.5
30718.5
31337.5
30523.7
31925.8
30859.5
29982
29759.6
34223.9
33764.1
32100.8
30704.9
17556.9
32079.4
31363.8
18142.7
31763.3
31168.4
18307.7
31639.6
31252.3
18486.8
31552.5
31291.9
18594.1
31138.8
31151.9
18717.1
30551.2
30272.1
18538.5
30360
29380.6
18126
29672.2
28990.5
18037.5
33459.9
32092
18923.6
)
;

boundaryField
{
    inlet
    {
        type            zeroGradient;
    }
    outlet
    {
        type            zeroGradient;
    }
    bottom
    {
        type            symmetryPlane;
    }
    top
    {
        type            symmetryPlane;
    }
    obstacle
    {
        type            zeroGradient;
    }
    defaultFaces
    {
        type            empty;
    }
}


// ************************************************************************* //
