/*--------------------------------*- C++ -*----------------------------------*\
| =========                 |                                                 |
| \\      /  F ield         | OpenFOAM: The Open Source CFD Toolbox           |
|  \\    /   O peration     | Version:  5.x                                   |
|   \\  /    A nd           | Web:      www.OpenFOAM.org                      |
|    \\/     M anipulation  |                                                 |
\*---------------------------------------------------------------------------*/
/*   Windows 32 and 64 bit porting by blueCAPE: http://www.bluecape.com.pt   *\
|  Based on Windows porting (2.0.x v4) by Symscape: http://www.symscape.com   |
\*---------------------------------------------------------------------------*/
FoamFile
{
    version     2.0;
    format      ascii;
    class       surfaceScalarField;
    location    "0.007";
    object      phi;
}
// * * * * * * * * * * * * * * * * * * * * * * * * * * * * * * * * * * * * * //

dimensions      [1 0 -1 0 0 0 0];

internalField   nonuniform List<scalar> 
174
(
12.3108
-0.800219
21.1811
0.27489
25.4278
1.42898
23.0278
1.35932
19.9947
1.49551
0.947451
7.45784
-0.68243
12.7226
0.919693
15.5963
2.10623
14.012
1.77858
11.8993
2.42744
1.75505
5.09208
-0.736312
8.9547
0.991153
11.0726
2.55655
10.1363
2.11994
8.7459
3.07414
2.10768
3.29152
-0.681297
5.76429
1.10701
7.16539
2.81107
6.55704
2.28907
5.6879
3.37093
2.33383
2.2054
-0.654809
3.90973
1.12689
4.88941
2.97087
4.48847
2.37494
3.9224
3.53972
2.43589
9.08344
-0.319721
16.1738
1.25016
20.4447
3.43075
18.8354
2.92491
17.4146
3.22512
2.11967
16.3261
16.8954
-0.252992
29.2508
1.64003
36.0561
3.54958
32.8138
2.57504
29.9865
1.9005
1.03016
27.7382
28.3333
0.470293
50.8985
0.714336
64.8035
4.17782
59.9784
1.82912
55.0231
1.22842
0.695907
50.4336
54.4453
0.624909
92.8319
3.05548
111.587
7.37441
99.8489
4.18983
88.9508
2.49114
0.944953
81.0483
92.3339
162.549
205.369
189.011
171.257
158.109
15.5766
0.246326
-0.0515148
14.7734
27.0249
0.183285
-0.0852627
26.2521
49.4903
0.0480954
-0.141119
48.1899
79.5387
0.145317
-0.0148649
77.7996
155.586
152.556
9.94833
-0.86831
10.2202
0.151633
-7.29812
8.34954
-0.7065
8.53119
0.443921
-9.69766
6.71195
-0.382909
7.06001
0.230698
-9.53792
4.77704
-0.0563988
5.30055
-0.103172
-8.98779
3.30079
0.186322
3.73605
-0.478663
-8.46605
14.9231
-0.329497
16.4794
-2.69806
-5.44537
25.9627
-0.775373
27.6599
-6.15254
-3.23558
46.5071
-0.619326
44.2481
-6.62311
-8.38494
76.5288
-0.624285
76.5145
-6.44496
-7.73528
150.137
145.915
)
;

boundaryField
{
    inlet
    {
        type            calculated;
        value           nonuniform List<scalar> 10(-2.41726 -4.44371 -7.56772 -14.1764 -24.4147 -3.06639 -1.9777 -1.31448 -0.870088 -0.578695);
    }
    outlet
    {
        type            calculated;
        value           nonuniform List<scalar> 10(4.87553 8.57832 15.44 26.8338 54.039 3.74435 2.83289 2.17395 1.61584 1.13153);
    }
    bottom
    {
        type            symmetryPlane;
        value           uniform 0;
    }
    top
    {
        type            symmetryPlane;
        value           uniform 0;
    }
    obstacle
    {
        type            calculated;
        value           nonuniform List<scalar> 
12
(
18.4667
10.9917
8.15026
5.25988
3.64979
-8.74976
-8.40122
-7.01952
-5.10458
-3.56476
0.20585
0.463602
)
;
    }
    defaultFaces
    {
        type            empty;
        value           nonuniform 0();
    }
}


// ************************************************************************* //
