/*--------------------------------*- C++ -*----------------------------------*\
| =========                 |                                                 |
| \\      /  F ield         | OpenFOAM: The Open Source CFD Toolbox           |
|  \\    /   O peration     | Version:  5.x                                   |
|   \\  /    A nd           | Web:      www.OpenFOAM.org                      |
|    \\/     M anipulation  |                                                 |
\*---------------------------------------------------------------------------*/
/*   Windows 32 and 64 bit porting by blueCAPE: http://www.bluecape.com.pt   *\
|  Based on Windows porting (2.0.x v4) by Symscape: http://www.symscape.com   |
\*---------------------------------------------------------------------------*/
FoamFile
{
    version     2.0;
    format      ascii;
    class       volScalarField;
    location    "0.007";
    object      T;
}
// * * * * * * * * * * * * * * * * * * * * * * * * * * * * * * * * * * * * * //

dimensions      [0 0 0 1 0 0 0];

internalField   nonuniform List<scalar> 
100
(
340.155
324.029
276.198
283.726
314.24
375.326
340.424
324.384
276.035
285.252
320.354
378.203
340.464
324.838
276.832
283.868
313.284
373.784
340.551
324.952
276.849
284.622
315.025
375.702
340.582
325.169
277.109
284.358
313.087
375.136
340.682
325.308
278.073
285.266
311.925
355.786
340.422
324.658
277.217
284.286
312.356
357.986
340.744
325.553
277.962
285.537
313.6
360.323
340.232
323.988
274.502
280.505
307.673
355.42
340.723
325.484
278.824
286.587
316.679
367.058
382.343
390.761
381.631
387.93
381.525
386.674
373.985
381.501
388.862
396.311
389.109
387.007
342.568
409.334
400.845
348.555
416.978
410.743
358.004
415.579
409.087
362.308
410.92
404.469
363.007
401.493
401.733
364.703
398.286
398.272
360.227
395.168
395.37
356.016
393.748
392.727
354.776
406.269
403.463
362.384
)
;

boundaryField
{
    inlet
    {
        type            zeroGradient;
    }
    outlet
    {
        type            zeroGradient;
    }
    bottom
    {
        type            symmetryPlane;
    }
    top
    {
        type            symmetryPlane;
    }
    obstacle
    {
        type            zeroGradient;
    }
    defaultFaces
    {
        type            empty;
    }
}


// ************************************************************************* //
