/*--------------------------------*- C++ -*----------------------------------*\
| =========                 |                                                 |
| \\      /  F ield         | OpenFOAM: The Open Source CFD Toolbox           |
|  \\    /   O peration     | Version:  5.x                                   |
|   \\  /    A nd           | Web:      www.OpenFOAM.org                      |
|    \\/     M anipulation  |                                                 |
\*---------------------------------------------------------------------------*/
/*   Windows 32 and 64 bit porting by blueCAPE: http://www.bluecape.com.pt   *\
|  Based on Windows porting (2.0.x v4) by Symscape: http://www.symscape.com   |
\*---------------------------------------------------------------------------*/
FoamFile
{
    version     2.0;
    format      ascii;
    class       volVectorField;
    location    "0.007";
    object      U;
}
// * * * * * * * * * * * * * * * * * * * * * * * * * * * * * * * * * * * * * //

dimensions      [0 1 -1 0 0 0 0];

internalField   nonuniform List<vector> 
100
(
(17.4019 1.31064 0)
(69.478 8.40722 0)
(152.855 21.9359 0)
(220.397 30.0855 0)
(263.521 34.7629 0)
(281.26 34.0551 0)
(16.7727 -0.783912 0)
(66.5186 -3.73523 0)
(152.329 -9.84636 -4.49881e-018)
(229.175 -13.6933 8.61972e-018)
(279.485 -14.8216 0)
(297.365 -15.0768 3.63778e-017)
(16.6673 0.463615 0)
(65.7353 3.68449 0)
(149.714 9.89871 0)
(221.847 14.027 0)
(270.113 19.2461 0)
(292.27 18.8935 1.33608e-017)
(16.4935 -0.287385 0)
(64.8349 -0.575432 -1.07519e-018)
(149.672 -1.25313 1.75941e-018)
(224.641 -1.59692 0)
(274.635 2.37783 0)
(298.38 2.98825 1.00009e-017)
(16.4025 0.161493 -3.31388e-019)
(64.2443 1.93853 5.30145e-019)
(148.457 5.42565 0)
(222.619 7.80929 -2.8775e-018)
(272.887 12.8377 4.89386e-018)
(300.406 12.5392 7.36358e-018)
(16.1367 -0.579326 0)
(62.9638 -2.1788 0)
(147.857 -4.79706 0)
(223.992 -6.29712 0)
(276.062 -2.78097 0)
(317.872 -0.485971 0)
(16.7024 0.360554 0)
(65.7512 3.27961 0)
(150.867 9.74738 0)
(226.403 14.1629 0)
(276.349 16.416 0)
(313.345 14.8457 0)
(15.9715 -0.388014 0)
(62.1533 -2.58662 0)
(146.954 -6.64074 0)
(223.623 -9.84632 0)
(276.239 -11.6524 0)
(315.846 -11.1498 0)
(16.8772 0.664719 0)
(66.9452 4.0629 0)
(151.904 14.5858 0)
(227.155 19.0159 0)
(276.853 22.6306 0)
(306.735 21.278 0)
(16.285 -0.502745 0)
(64.0485 -2.53931 0)
(147.831 -7.88916 0)
(223.267 -12.7263 0)
(272.578 -16.9475 0)
(303.6 -21.2092 0)
(333.702 -2.76203 0)
(344.607 -6.53861 0)
(326.906 12.4482 0)
(337.075 7.53542 0)
(330.636 -11.7931 0)
(342.782 -13.8378 0)
(314.655 18.974 0)
(319.278 14.8305 0)
(313.421 -22.5365 0)
(321.055 -23.4492 0)
(161.283 -0.278237 1.52807e-016)
(172.752 15.6367 -4.90397e-017)
(113.364 10.7104 0)
(252.659 -9.60969 1.17336e-016)
(225.372 -4.36939 1.57855e-017)
(125.68 -16.5461 -7.66882e-018)
(315.308 -2.90869 0)
(284.592 6.474 0)
(146.095 -7.9775 0)
(339.885 -0.824517 6.48625e-017)
(314.641 0.230926 -9.6144e-018)
(162.279 -11.001 0)
(349.367 2.3996 2.3854e-017)
(326.235 2.25593 0)
(169.038 -7.83074 0)
(348.206 -4.11549 0)
(329.146 -9.2251 0)
(171.315 -15.6163 0)
(342.049 -0.554526 0)
(328.892 -16.0411 0)
(168.931 -2.96898 0)
(348.927 -17.2186 0)
(333.378 -27.107 0)
(172.691 -12.1824 0)
(320.617 7.32861 0)
(306.322 -12.4174 0)
(168.998 -10.4276 0)
(326.063 -23.9596 0)
(320.011 -20.8637 0)
(186.516 -8.43599 0)
)
;

boundaryField
{
    inlet
    {
        type            zeroGradient;
    }
    outlet
    {
        type            zeroGradient;
    }
    bottom
    {
        type            symmetryPlane;
    }
    top
    {
        type            symmetryPlane;
    }
    obstacle
    {
        type            zeroGradient;
    }
    defaultFaces
    {
        type            empty;
    }
}


// ************************************************************************* //
