/*--------------------------------*- C++ -*----------------------------------*\
| =========                 |                                                 |
| \\      /  F ield         | OpenFOAM: The Open Source CFD Toolbox           |
|  \\    /   O peration     | Version:  5.x                                   |
|   \\  /    A nd           | Web:      www.OpenFOAM.org                      |
|    \\/     M anipulation  |                                                 |
\*---------------------------------------------------------------------------*/
/*   Windows 32 and 64 bit porting by blueCAPE: http://www.bluecape.com.pt   *\
|  Based on Windows porting (2.0.x v4) by Symscape: http://www.symscape.com   |
\*---------------------------------------------------------------------------*/
FoamFile
{
    version     2.0;
    format      ascii;
    class       volScalarField;
    location    "0.002";
    object      mag(U);
}
// * * * * * * * * * * * * * * * * * * * * * * * * * * * * * * * * * * * * * //

dimensions      [0 1 -1 0 0 0 0];

internalField   nonuniform List<scalar> 
10000
(
3.17767e-012
1.30082e-012
7.50711e-012
3.09549e-012
3.44428e-012
7.16627e-012
1.39422e-011
2.1833e-010
2.38979e-009
2.8842e-008
2.68885e-007
2.67449e-006
2.11424e-005
0.000171203
0.00112518
0.00727718
0.038705
0.193346
0.778559
2.73825
7.78281
19.1616
39.2807
69.0874
105.129
141.893
177.154
207.106
233.169
257.99
282.981
303.508
314.474
323.471
335.311
342.889
342.687
333.802
313.202
267.473
159.669
30.2596
3.86012
0.451546
0.0660147
0.0100727
0.00158877
0.000172939
8.40567e-005
9.51513e-006
7.68502e-006
2.03671e-006
7.96392e-007
2.42814e-007
7.85791e-008
2.36777e-008
7.18506e-009
2.09585e-009
5.89318e-010
2.55263e-010
3.47749e-012
2.08217e-012
4.90247e-012
2.60588e-012
8.01948e-013
6.83674e-012
1.14052e-011
1.9147e-010
2.01835e-009
2.50141e-008
2.26397e-007
2.30817e-006
1.7876e-005
0.000148027
0.000962042
0.0063487
0.0337138
0.172078
0.700055
2.50862
7.20827
17.9972
37.3298
66.4581
102.207
139.335
175.288
206.371
233.545
258.756
283.147
301.962
310.015
314.041
319.383
320.108
314.309
303.159
285.42
249.13
158.637
38.5706
5.31511
0.722867
0.108781
0.0158277
0.00254319
0.00034727
9.67679e-005
6.93591e-006
6.62991e-006
1.20814e-006
5.67617e-007
1.42493e-007
4.8733e-008
1.31166e-008
3.98624e-009
1.09788e-009
3.00733e-010
1.19233e-010
5.44133e-012
3.51486e-012
6.84548e-012
3.14972e-012
2.40703e-012
7.07561e-012
1.13707e-011
1.87395e-010
1.96545e-009
2.45993e-008
2.21883e-007
2.2777e-006
1.7615e-005
0.000146513
0.000951966
0.00629859
0.0334515
0.170837
0.694975
2.49283
7.16814
17.9091
37.155
66.1296
101.611
138.411
173.366
205.059
232.149
255.633
277.488
293.873
299.461
301.468
305.581
307.35
304.719
297.227
283.41
251.533
163.746
44.2028
6.31169
0.887506
0.139114
0.0202794
0.00331072
0.000459831
0.000117912
5.58036e-006
7.08109e-006
9.74206e-007
5.75451e-007
1.45357e-007
5.23401e-008
1.49391e-008
4.72099e-009
1.32121e-009
3.78319e-010
1.59583e-010
3.04694e-012
5.36093e-012
4.39351e-012
2.47729e-012
3.66624e-012
6.40321e-012
9.53233e-012
1.67891e-010
1.68834e-009
2.18097e-008
1.90078e-007
2.00705e-006
1.514e-005
0.000129057
0.00082626
0.0055829
0.0295268
0.153977
0.63199
2.30762
6.69951
16.9499
35.5278
63.9034
99.0704
136.263
171.439
204.619
233.101
256.636
277.335
292.136
295.225
293.478
293.943
292.937
289.506
283.782
273.793
248.54
171.712
53.0575
7.77001
1.14916
0.184786
0.0270768
0.00442416
0.000689231
0.000138239
1.65917e-005
6.56699e-006
5.75534e-007
4.43771e-007
7.20843e-008
3.18388e-008
6.84905e-009
2.28388e-009
5.66805e-010
1.55703e-010
6.49419e-011
3.42167e-012
5.23487e-012
5.53638e-012
3.13611e-012
6.03154e-013
6.78951e-012
9.54403e-012
1.61743e-010
1.60548e-009
2.11517e-008
1.82704e-007
1.95609e-006
1.46925e-005
0.000126377
0.000808034
0.00548917
0.0290308
0.151649
0.622479
2.27779
6.62348
16.7877
35.232
63.4302
98.3718
135.212
169.768
202.602
230.697
253.82
274.116
288.993
291.818
289.491
289.51
288.422
285.172
279.934
271.219
248.399
176.295
60.0617
9.06463
1.41412
0.228286
0.0343336
0.00571291
0.000883898
0.000179903
2.02455e-005
7.95299e-006
1.3167e-007
4.92095e-007
7.12242e-008
3.84108e-008
9.23555e-009
3.36746e-009
8.64809e-010
2.67091e-010
1.05133e-010
3.01326e-012
4.61366e-012
3.69236e-012
2.36337e-012
7.59561e-013
6.21479e-012
8.49605e-012
1.47905e-010
1.39593e-009
1.9124e-008
1.58741e-007
1.75694e-006
1.28134e-005
0.000113284
0.000711234
0.00493937
0.0259541
0.13831
0.571943
2.12819
6.24099
15.9951
33.8713
61.5403
96.17
133.174
168.469
201.749
230.052
253.598
274.242
289.78
293.215
290.564
289.862
287.789
283.547
278.065
270.173
250.578
185.41
69.0901
10.6752
1.73199
0.280001
0.0433997
0.00712187
0.00119673
0.0002151
3.36784e-005
8.32576e-006
9.21101e-007
4.23753e-007
3.72224e-008
2.46125e-008
3.49819e-009
1.50215e-009
3.03819e-010
1.0188e-010
3.8908e-011
2.66688e-012
4.90761e-012
7.14146e-012
3.11425e-012
2.42878e-012
6.8117e-012
8.77195e-012
1.41277e-010
1.30248e-009
1.83895e-008
1.50154e-007
1.69751e-006
1.22737e-005
0.000110015
0.000688398
0.00481994
0.0253108
0.13531
0.559637
2.0893
6.14092
15.7822
33.4901
60.9616
95.3924
132.128
166.776
199.594
227.57
250.969
271.849
288.631
293.846
292.481
292.761
291.349
287.046
280.904
272.586
253.346
191.709
77.1963
12.3057
2.07558
0.335082
0.0531205
0.00882134
0.00150314
0.000270652
4.1788e-005
1.06725e-005
9.73048e-007
5.32836e-007
1.18377e-008
3.41052e-008
5.16907e-009
2.72157e-009
5.68655e-010
2.06106e-010
7.41777e-011
3.17106e-012
3.77079e-012
5.32241e-012
2.12867e-012
1.39837e-012
5.89354e-012
7.85221e-012
1.31422e-010
1.14029e-009
1.69045e-008
1.31797e-007
1.55016e-006
1.08313e-005
0.000100156
0.000613356
0.00439628
0.0228912
0.124713
0.518878
1.9677
5.82686
15.1234
32.3458
59.3525
93.4661
130.299
165.565
198.743
226.866
250.688
271.959
289.675
296.206
295.159
295.319
293.707
289.108
282.704
274.366
256.553
199.865
86.6173
14.2722
2.46251
0.397032
0.064257
0.0107018
0.00190227
0.000321447
5.86743e-005
1.18428e-005
1.88749e-006
5.12917e-007
6.64401e-008
2.54194e-008
3.43859e-009
1.27615e-009
2.3287e-010
8.06813e-011
2.77466e-011
3.07365e-012
3.08492e-012
6.40319e-012
4.32928e-012
2.36475e-012
6.18998e-012
7.51778e-012
1.25314e-010
1.04724e-009
1.61933e-008
1.23042e-007
1.49023e-006
1.02652e-005
9.67197e-005
0.000588631
0.00426565
0.0221731
0.121379
0.5051
1.92386
5.71278
14.8798
31.911
58.703
92.6408
129.26
163.986
196.812
224.65
248.271
269.638
288.209
295.941
295.555
296.416
295.432
291.068
284.509
276.077
258.769
205.785
95.4705
16.5267
2.87826
0.465982
0.0758571
0.0130078
0.00228366
0.000395896
7.12885e-005
1.49096e-005
2.18413e-006
6.81383e-007
5.51101e-008
3.75107e-008
2.2728e-009
2.53232e-009
3.37937e-010
1.76296e-010
5.09757e-011
2.46961e-012
2.44081e-012
4.00323e-012
3.95772e-012
3.67178e-012
5.49106e-012
8.049e-012
1.18345e-010
9.18682e-010
1.50936e-008
1.08688e-007
1.38011e-006
9.14089e-006
8.92334e-005
0.0005298
0.00393686
0.020255
0.112901
0.471932
1.82409
5.45231
14.3274
30.9405
57.3231
90.9509
127.613
162.856
196.062
224.016
247.906
269.381
288.351
296.58
296.097
296.9
296.115
291.976
285.501
277.183
261.089
212.338
104.574
19.1951
3.33667
0.541634
0.0887186
0.0156168
0.00272702
0.000473136
9.06975e-005
1.70824e-005
3.20266e-006
7.08653e-007
1.23643e-007
3.17481e-008
5.66499e-009
1.47106e-009
2.94704e-010
7.41701e-011
2.1674e-011
4.11456e-012
3.47598e-012
5.09514e-012
6.34589e-012
5.60621e-013
5.85231e-012
6.48156e-012
1.12713e-010
8.31637e-010
1.44556e-008
1.00345e-007
1.3242e-006
8.58879e-006
8.58986e-005
0.000505021
0.00380529
0.0195156
0.109483
0.457657
1.77833
5.3319
14.0685
30.4769
56.6326
90.096
126.589
161.369
194.391
222.275
246.111
267.629
287.062
295.855
295.485
296.371
295.741
291.811
285.575
277.655
262.48
217.33
113.128
22.2272
3.83074
0.624257
0.102525
0.0186595
0.00315733
0.000577192
0.000106436
2.11775e-005
3.70833e-006
9.23544e-007
1.28231e-007
4.63453e-008
4.05596e-009
2.65818e-009
2.05978e-010
1.66836e-010
3.35258e-011
2.98221e-012
4.28174e-012
4.67036e-012
5.83391e-012
2.50243e-012
5.45697e-012
7.37525e-012
1.07369e-010
7.27064e-010
1.36321e-008
8.88842e-008
1.24091e-006
7.69717e-006
8.01492e-005
0.000458263
0.00354769
0.0179774
0.102644
0.430357
1.69555
5.11321
13.6003
29.6457
55.4399
88.6105
125.1
160.271
193.629
221.624
245.719
267.419
287.178
296.541
296.234
296.716
295.584
291.338
285.072
277.433
263.509
222.229
121.616
25.6223
4.37068
0.712641
0.118115
0.0219371
0.00365363
0.000687154
0.000127866
2.46239e-005
4.82477e-006
1.0123e-006
1.98074e-007
4.46264e-008
8.87647e-009
2.00889e-009
4.34403e-010
9.21308e-011
2.74306e-011
2.94159e-012
5.34721e-012
4.8857e-012
9.09336e-012
3.77702e-013
5.66568e-012
4.44276e-012
1.03089e-010
6.48421e-010
1.30854e-008
8.12278e-008
1.19115e-006
7.18097e-006
7.70668e-005
0.000434555
0.00342173
0.0172529
0.0993077
0.416256
1.65001
4.99199
13.3372
29.1715
54.732
87.7449
124.1
158.88
192.126
220.157
244.271
266.06
286.255
296.408
296.625
297.309
296.289
291.899
285.362
277.757
264.595
226.456
129.663
29.3343
4.95347
0.807329
0.135447
0.0254923
0.00416882
0.000820513
0.000146958
2.98879e-005
5.54796e-006
1.27287e-006
2.17888e-007
6.1028e-008
8.47906e-009
3.17517e-009
3.2733e-010
1.77402e-010
1.91053e-011
3.67486e-012
3.45625e-012
2.71493e-012
6.25169e-012
3.43462e-012
5.26265e-012
7.02122e-012
9.88382e-011
5.61977e-010
1.24631e-008
7.19006e-008
1.12739e-006
6.46169e-006
7.25959e-005
0.000396849
0.00321764
0.0160029
0.0937426
0.39351
1.58049
4.80609
12.936
28.4516
53.6903
86.4337
122.751
157.814
191.355
219.488
243.836
265.923
286.507
297.395
298.018
298.732
297.879
293.642
286.924
279.035
266.374
230.982
137.633
33.3585
5.58407
0.908246
0.155186
0.0291526
0.00477076
0.000957832
0.000171439
3.46898e-005
6.79187e-006
1.43174e-006
2.91637e-007
6.41048e-008
1.33681e-008
2.94191e-009
6.39983e-010
1.35824e-010
3.42234e-011
2.91789e-012
5.05166e-012
4.8991e-012
8.51615e-012
1.55149e-012
5.25219e-012
2.62551e-012
9.52843e-011
4.92093e-010
1.20091e-008
6.50262e-008
1.08444e-006
5.99135e-006
6.98354e-005
0.000374828
0.003101
0.0153157
0.0905901
0.380008
1.53656
4.68783
12.6769
27.9814
52.9835
85.5718
121.774
156.542
190.011
218.209
242.663
264.961
286.002
297.768
299.038
300.13
299.791
295.882
289.125
280.96
268.441
235.176
145.246
37.6641
6.25799
1.0162
0.17729
0.0329345
0.0054301
0.00111117
0.000195266
4.10296e-005
7.76364e-006
1.73772e-006
3.28237e-007
8.18458e-008
1.42588e-008
4.10669e-009
6.12672e-010
2.14302e-010
2.01851e-011
4.47087e-012
3.40573e-012
2.62261e-012
6.76314e-012
4.89008e-012
5.78716e-012
6.57515e-012
9.21905e-011
4.19374e-010
1.15358e-008
5.73126e-008
1.03508e-006
5.40187e-006
6.63146e-005
0.000343986
0.00293737
0.0142863
0.0860191
0.360829
1.47747
4.52784
12.3294
27.3516
52.064
84.4088
120.55
155.519
189.215
217.478
242.156
264.827
286.339
298.933
300.803
302.158
302.135
298.319
291.416
282.898
270.524
239.241
152.637
42.2466
6.9768
1.1327
0.202127
0.0367625
0.00620423
0.00126521
0.000224688
4.70439e-005
9.18363e-006
1.97022e-006
4.07906e-007
9.00509e-008
1.91858e-008
4.26988e-009
9.32119e-010
2.03997e-010
4.70784e-011
4.3519e-012
4.28747e-012
3.64417e-012
7.25306e-012
1.72232e-012
4.95059e-012
3.51268e-012
8.9891e-011
3.58002e-010
1.11669e-008
5.12211e-008
9.98767e-007
4.98012e-006
6.38946e-005
0.000323922
0.00283174
0.0136483
0.0831039
0.348165
1.43594
4.4148
12.0796
26.895
51.3723
83.5623
119.598
154.372
188.006
216.296
241.094
264.032
285.991
299.511
302.25
304.136
304.652
300.971
293.869
284.93
272.538
242.903
159.626
47.0566
7.7342
1.25952
0.229149
0.0407124
0.00705956
0.00142932
0.000254971
5.42353e-005
1.04422e-005
2.31914e-006
4.62257e-007
1.09334e-007
2.13488e-008
5.44779e-009
9.97494e-010
2.81882e-010
3.82837e-011
4.50144e-012
2.56207e-012
2.49462e-012
5.61702e-012
3.9593e-012
6.22954e-012
4.98977e-012
8.73411e-011
2.96921e-010
1.08051e-008
4.4763e-008
9.60168e-007
4.49036e-006
6.10878e-005
0.000298364
0.00269893
0.0127899
0.0793127
0.331816
1.38515
4.27551
11.7751
26.3382
50.5524
82.5232
118.484
153.393
187.193
215.517
240.485
263.773
286.193
300.538
304.003
306.158
306.942
303.282
296.022
286.709
274.378
246.309
166.324
52.0836
8.53006
1.39956
0.2582
0.0448463
0.00802948
0.00159584
0.000290841
6.12789e-005
1.2089e-005
2.62254e-006
5.50345e-007
1.22471e-007
2.65179e-008
5.97508e-009
1.31779e-009
2.97397e-010
6.17001e-011
5.04808e-012
3.99962e-012
3.08105e-012
6.1013e-012
1.51117e-012
4.79671e-012
3.07711e-012
8.55147e-011
2.43656e-010
1.05108e-008
3.94124e-008
9.29913e-007
4.11607e-006
5.89963e-005
0.000280319
0.00260471
0.0122063
0.0766567
0.320104
1.34648
4.16908
11.5377
25.9013
49.8854
81.7021
117.562
152.353
186.098
214.416
239.488
263.025
285.788
300.948
305.18
307.566
308.596
304.977
297.626
288.091
275.876
249.271
172.606
57.2701
9.35729
1.55455
0.288345
0.0492656
0.00906474
0.00177264
0.000328092
6.92547e-005
1.36547e-005
3.01484e-006
6.22457e-007
1.43742e-007
2.98855e-008
7.22087e-009
1.46821e-009
3.74811e-010
6.17519e-011
3.10677e-012
3.03055e-012
3.74035e-012
6.42993e-012
4.63405e-012
5.35117e-012
5.14043e-012
8.37311e-011
1.92649e-010
1.02337e-008
3.39659e-008
8.99482e-007
3.70462e-006
5.67345e-005
0.000258895
0.00249564
0.0114823
0.0734814
0.306034
1.30242
4.04671
11.2682
25.4042
49.1469
80.7655
116.543
151.42
185.281
213.626
238.8
262.595
285.645
301.419
306.22
308.62
309.818
306.361
299.053
289.357
277.254
251.956
178.566
62.5962
10.2219
1.7273
0.319516
0.054087
0.0101871
0.0019577
0.00037034
7.73456e-005
1.55534e-005
3.38743e-006
7.21276e-007
1.61575e-007
3.55053e-008
8.07928e-009
1.8042e-009
4.1426e-010
8.23223e-011
3.68106e-012
1.92346e-012
3.55649e-012
5.96104e-012
2.56706e-012
4.62675e-012
4.18212e-012
8.22425e-011
1.47685e-010
1.00019e-008
2.93104e-008
8.74525e-007
3.37446e-006
5.4945e-005
0.000242792
0.00241242
0.0109538
0.0710859
0.295308
1.26679
3.94762
11.0451
24.9906
48.5109
79.9778
115.657
150.474
184.29
212.654
237.867
261.708
284.776
301.021
306.429
308.922
310.471
307.469
300.468
290.807
278.807
254.594
184.248
68.0041
11.1225
1.91756
0.350934
0.0593547
0.0113445
0.0021553
0.000413821
8.62223e-005
1.74211e-005
3.82753e-006
8.10797e-007
1.85315e-007
4.00148e-008
9.44288e-009
2.0329e-009
4.9615e-010
8.88655e-011
2.73685e-012
3.85766e-012
3.34771e-012
4.25994e-012
4.45793e-012
5.03058e-012
4.61166e-012
8.09096e-011
1.08604e-010
9.79112e-009
2.47203e-008
8.50387e-007
3.02581e-006
5.31036e-005
0.000224652
0.00232181
0.0103372
0.0684008
0.283098
1.22824
3.83927
10.8047
24.5432
47.8399
79.1272
114.721
149.593
183.489
211.966
237.157
260.903
283.741
300.08
305.949
308.516
310.465
308.034
301.513
292.092
280.28
257.039
189.642
73.4611
12.0722
2.12689
0.383032
0.065194
0.0125643
0.0023671
0.000461625
9.54759e-005
1.95771e-005
4.26943e-006
9.21993e-007
2.07684e-007
4.62518e-008
1.06103e-008
2.39849e-009
5.57731e-010
1.09791e-010
4.2217e-012
1.41515e-012
2.05214e-012
5.54192e-012
2.84415e-012
4.47331e-012
5.35364e-012
8.01624e-011
8.09155e-011
9.61156e-009
2.07366e-008
8.2994e-007
2.73626e-006
5.15805e-005
0.000210365
0.00224876
0.00986162
0.0662547
0.273337
1.1956
3.74763
10.5969
24.1549
47.2383
78.3784
113.872
148.75
182.573
211.252
236.396
259.679
281.823
297.931
304.207
306.997
309.486
307.73
301.834
292.908
281.448
259.213
194.691
78.9133
13.0728
2.352
0.415292
0.071546
0.0137984
0.0025928
0.000510329
0.000105397
2.17296e-005
4.76195e-006
1.0283e-006
2.34272e-007
5.18468e-008
1.21278e-008
2.7008e-009
6.47909e-010
1.21249e-010
4.41474e-012
2.12782e-012
3.11855e-012
2.12424e-012
4.47818e-012
4.46933e-012
5.36125e-012
7.92668e-011
7.27554e-011
9.45105e-009
1.69691e-008
8.10682e-007
2.43925e-006
5.00683e-005
0.000194885
0.00217277
0.00933181
0.0639636
0.262666
1.16161
3.65098
10.3809
23.7496
46.6243
77.6013
112.997
147.987
181.637
210.81
236.082
258.773
279.891
295.341
301.58
304.563
307.656
306.61
301.392
293.111
282.151
260.99
199.383
84.4305
14.1603
2.59343
0.448737
0.0785234
0.0150903
0.00283691
0.000562978
0.000115915
2.41411e-005
5.27331e-006
1.15295e-006
2.61035e-007
5.88199e-008
1.35876e-008
3.10713e-009
7.28645e-010
1.42329e-010
3.42536e-012
1.22766e-013
2.67019e-012
4.52147e-012
3.34498e-012
4.12961e-012
5.19226e-012
7.87324e-011
8.61246e-011
9.31303e-009
1.37589e-008
7.94047e-007
2.18628e-006
4.87762e-005
0.000182233
0.00210892
0.00890552
0.0620489
0.253823
1.13185
3.56661
10.1881
23.3871
46.0584
76.8945
112.18
147.282
180.522
210.073
235.882
258.276
278.451
293.172
298.945
301.816
305.265
304.777
300.19
292.629
282.279
262.26
203.581
89.9429
15.351
2.84494
0.482897
0.0859262
0.0163938
0.00309349
0.000616247
0.000126963
2.65589e-005
5.82109e-006
1.27521e-006
2.90709e-007
6.54389e-008
1.52828e-008
3.47716e-009
8.28546e-010
1.58715e-010
3.41803e-012
1.67386e-012
2.74054e-012
2.99523e-012
4.29121e-012
4.31228e-012
5.13792e-012
7.8073e-011
1.1114e-010
9.19103e-009
1.10099e-008
7.78643e-007
1.93323e-006
4.75241e-005
0.000168928
0.00204459
0.00844694
0.0600778
0.244444
1.10169
3.4799
9.99293
23.0178
45.4934
76.1792
111.374
146.513
179.66
209.427
235.545
258.012
277.787
291.965
297.144
299.536
302.863
302.532
298.368
291.501
281.843
263.064
207.36
95.3728
16.6785
3.10801
0.519192
0.093897
0.0177724
0.00337028
0.000673588
0.000138782
2.92255e-005
6.40145e-006
1.41402e-006
3.21729e-007
7.32306e-008
1.70202e-008
3.93143e-009
9.28441e-010
1.81801e-010
3.92375e-012
1.24225e-012
2.64493e-012
4.93206e-012
3.12794e-012
4.04196e-012
4.97068e-012
7.76924e-011
1.38222e-010
9.08589e-009
9.05903e-009
7.65144e-007
1.71408e-006
4.64293e-005
0.000157766
0.00198885
0.00806591
0.0583736
0.236459
1.07464
3.4025
9.81492
22.6809
44.9638
75.5139
110.614
145.784
178.837
208.708
235.148
257.808
277.371
291.201
295.852
297.548
300.4
299.944
296.047
289.829
280.919
263.429
210.66
100.556
18.1123
3.37461
0.556747
0.102122
0.0191666
0.00365544
0.000731297
0.000150949
3.18932e-005
7.00498e-006
1.55131e-006
3.54584e-007
8.08088e-008
1.89061e-008
4.36479e-009
1.04021e-009
2.02128e-010
3.93368e-012
1.56681e-012
2.83138e-012
2.83715e-012
3.93463e-012
4.43235e-012
5.42657e-012
7.73621e-011
1.6766e-010
8.994e-009
8.14095e-009
7.52788e-007
1.50008e-006
4.53853e-005
0.000146269
0.00193402
0.00766648
0.0566651
0.228174
1.04773
3.32435
9.63763
22.343
44.4417
74.8523
109.865
145.041
178.07
208.1
234.798
257.686
277.113
290.61
294.754
295.658
297.866
297.18
293.513
287.899
279.739
263.514
213.644
105.63
19.6812
3.64943
0.597399
0.110864
0.0206598
0.00396227
0.000793598
0.000164047
3.48188e-005
7.6533e-006
1.70476e-006
3.89742e-007
8.94737e-008
2.09113e-008
4.87289e-009
1.15887e-009
2.28165e-010
3.35439e-012
6.85088e-013
1.4286e-012
4.6449e-012
2.46553e-012
4.24404e-012
5.20152e-012
7.69844e-011
1.95705e-010
8.91512e-009
8.40051e-009
7.41819e-007
1.3144e-006
4.44578e-005
0.000136408
0.0018854
0.00732642
0.0551498
0.22098
1.02319
3.25353
9.47364
22.0308
43.9474
74.2286
109.152
144.347
177.328
207.477
234.409
257.411
276.648
289.897
293.597
293.694
295.211
294.324
290.953
285.954
278.552
263.518
216.348
110.419
21.3357
3.9221
0.639624
0.11967
0.0221645
0.00427215
0.000855742
0.000177267
3.77215e-005
8.31081e-006
1.85604e-006
4.25742e-007
9.79423e-008
2.29908e-008
5.36551e-009
1.28308e-009
2.52026e-010
2.70823e-012
8.1783e-013
2.63887e-012
3.85199e-012
3.41169e-012
4.11204e-012
5.35614e-012
7.68653e-011
2.23469e-010
8.84615e-009
9.71306e-009
7.31868e-007
1.13826e-006
4.35823e-005
0.000126447
0.00183831
0.00697639
0.0536592
0.213627
0.999084
3.18281
9.31196
21.7203
43.4633
73.6139
108.455
143.631
176.631
206.946
234.049
257.179
276.285
289.282
292.5
291.781
292.608
291.558
288.516
284.131
277.482
263.566
218.971
115.136
23.1264
4.20219
0.685953
0.128989
0.0237964
0.00460649
0.000923297
0.000191617
4.0911e-005
9.02606e-006
2.02447e-006
4.64949e-007
1.07517e-007
2.52571e-008
5.93146e-009
1.41933e-009
2.81681e-010
2.05715e-012
7.03956e-013
1.15189e-012
3.77024e-012
2.41339e-012
4.00766e-012
5.559e-012
7.6536e-011
2.4954e-010
8.78564e-009
1.1496e-008
7.22988e-007
9.88295e-007
4.27946e-005
0.000117769
0.0017959
0.00667306
0.0523115
0.207155
0.976838
3.11812
9.16119
21.4317
43.0033
73.0307
107.788
142.977
175.959
206.401
233.666
256.883
275.879
288.718
291.529
290.066
290.285
289.115
286.355
282.495
276.536
263.612
221.343
119.56
24.9768
4.4762
0.733736
0.138162
0.0254241
0.00493698
0.00098973
0.000205792
4.40298e-005
9.73382e-006
2.18849e-006
5.03926e-007
1.16797e-007
2.75243e-008
6.4778e-009
1.55561e-009
3.07821e-010
2.62002e-012
1.14865e-012
2.72613e-012
4.32659e-012
3.58368e-012
3.82079e-012
5.28751e-012
7.67389e-011
2.74645e-010
8.73177e-009
1.34887e-008
7.14934e-007
8.54805e-007
4.20571e-005
0.000109077
0.00175529
0.00636472
0.0510027
0.200599
0.955166
3.05389
9.01318
21.1455
42.5532
72.4576
107.136
142.304
175.295
205.889
233.267
256.591
275.556
288.309
290.806
288.719
288.421
287.142
284.556
281.066
275.678
263.639
223.606
123.936
26.9567
4.76132
0.786458
0.14794
0.0272136
0.00529695
0.00106283
0.000221375
4.74887e-005
1.05155e-005
2.37222e-006
5.47136e-007
1.27309e-007
3.0047e-008
7.10337e-009
1.70853e-009
3.39321e-010
1.44049e-012
9.89106e-013
1.01003e-012
3.71469e-012
2.56841e-012
3.93822e-012
5.66134e-012
7.6505e-011
2.98458e-010
8.68624e-009
1.54436e-008
7.07748e-007
7.48627e-007
4.1387e-005
0.000101439
0.00171818
0.00609449
0.0498027
0.194779
0.935024
2.99491
8.87481
20.8793
42.1259
71.9134
106.513
141.686
174.686
205.375
232.822
256.205
275.18
288.012
290.376
287.809
287.064
285.623
283.052
279.764
274.832
263.555
225.531
127.946
28.9526
5.03855
0.839565
0.157372
0.028962
0.00564414
0.00113319
0.000236375
5.07975e-005
1.12677e-005
2.54737e-006
5.88783e-007
1.373e-007
3.2485e-008
7.69652e-009
1.85587e-009
3.68042e-010
1.88619e-012
2.23554e-012
2.27178e-012
3.65013e-012
4.28011e-012
3.6025e-012
4.74441e-012
7.66682e-011
3.21199e-010
8.64671e-009
1.74832e-008
7.01251e-007
6.71553e-007
4.07625e-005
9.38999e-005
0.00168294
0.00582153
0.0486468
0.188903
0.91546
2.93637
8.73883
20.6146
41.7064
71.3777
105.902
141.053
174.074
204.851
232.333
255.826
274.937
287.986
290.396
287.498
286.336
284.631
281.878
278.592
273.979
263.393
227.36
131.93
31.0706
5.33443
0.898292
0.167666
0.0309143
0.00602997
0.0012121
0.000253205
5.45342e-005
1.21165e-005
2.74681e-006
6.36018e-007
1.4878e-007
3.52648e-008
8.38416e-009
2.02561e-009
4.03097e-010
1.13923e-012
9.58273e-013
9.28078e-013
2.54882e-012
3.49629e-012
3.80059e-012
6.15162e-012
7.66879e-011
3.42502e-010
8.61428e-009
1.94026e-008
6.95439e-007
6.28387e-007
4.01932e-005
8.71559e-005
0.00165043
0.00558111
0.0475772
0.183672
0.897225
2.88269
8.61209
20.3697
41.3103
70.8711
105.321
140.477
173.515
204.331
231.822
255.403
274.697
288.125
290.821
287.81
286.351
284.343
281.242
277.736
273.256
263.211
228.89
135.521
33.1518
5.61904
0.955462
0.177356
0.0327599
0.00639066
0.00128567
0.000268866
5.7996e-005
1.29047e-005
2.93096e-006
6.79861e-007
1.5935e-007
3.78455e-008
9.01634e-009
2.18275e-009
4.33946e-010
1.79169e-012
2.4795e-012
2.76438e-012
3.06353e-012
4.55718e-012
3.5426e-012
4.38279e-012
7.66703e-011
3.6257e-010
8.5871e-009
2.13031e-008
6.90221e-007
6.20823e-007
3.96652e-005
8.05394e-005
0.00161971
0.00533815
0.0465514
0.178381
0.879479
2.82911
8.48666
20.124
40.9182
70.369
104.746
139.886
172.933
203.778
231.273
254.982
274.526
288.435
291.63
288.721
287.117
284.848
281.319
277.395
272.822
263.18
230.516
139.195
35.3578
5.93239
1.01958
0.188314
0.0348759
0.0068048
0.00137071
0.000287008
6.20264e-005
1.38234e-005
3.14692e-006
7.31255e-007
1.71844e-007
4.0889e-008
9.7694e-009
2.36984e-009
4.72144e-010
1.14629e-012
1.14885e-012
1.03148e-012
7.91058e-013
3.27687e-012
3.66498e-012
6.23599e-012
7.6852e-011
3.81053e-010
8.56472e-009
2.30676e-008
6.85531e-007
6.40501e-007
3.918e-005
7.47199e-005
0.00159119
0.00512436
0.0455975
0.17369
0.862986
2.78037
8.37087
19.8992
40.552
69.8987
104.203
139.351
172.41
203.269
230.751
254.532
274.279
288.711
292.564
289.96
288.419
286.027
282.114
277.68
272.817
263.342
231.926
142.475
37.464
6.22727
1.0794
0.198229
0.0367858
0.0071748
0.00144639
0.000303105
6.5589e-005
1.46356e-005
3.33711e-006
7.76604e-007
1.82813e-007
4.35702e-008
1.04287e-008
2.53368e-009
5.04478e-010
1.44822e-012
2.06328e-012
4.05412e-012
1.72156e-012
5.08314e-012
3.54409e-012
4.28571e-012
7.68008e-011
3.9891e-010
8.54669e-009
2.48054e-008
6.81338e-007
6.87617e-007
3.87314e-005
6.91057e-005
0.00156441
0.00490652
0.0446823
0.168902
0.846815
2.73107
8.2546
19.6701
40.1843
69.4267
103.661
138.798
171.85
202.724
230.197
254.042
273.948
288.868
293.447
291.265
289.917
287.535
283.368
278.48
273.239
263.828
233.621
145.975
39.7164
6.56649
1.14871
0.210029
0.0390772
0.00762135
0.00153821
0.000322697
6.99431e-005
1.56305e-005
3.57113e-006
8.32486e-007
1.96409e-007
4.68962e-008
1.12523e-008
2.73972e-009
5.45608e-010
1.12724e-012
1.94824e-012
1.97693e-012
7.76283e-013
3.6055e-012
3.41463e-012
6.67677e-012
7.70996e-011
4.15229e-010
8.53149e-009
2.6398e-008
6.77527e-007
7.47596e-007
3.83144e-005
6.41674e-005
0.00153932
0.00471707
0.0438312
0.164708
0.831931
2.68698
8.14925
19.4649
39.847
68.9915
103.157
138.299
171.369
202.266
229.709
253.538
273.501
288.805
294.048
292.314
291.257
289.001
284.737
279.541
273.951
264.478
235.072
149.037
41.7841
6.87451
1.20946
0.22006
0.041009
0.00799395
0.00161444
0.000338903
7.35316e-005
1.64494e-005
3.76317e-006
8.78336e-007
2.07523e-007
4.96162e-008
1.19231e-008
2.90689e-009
5.78478e-010
1.18774e-012
1.40972e-012
4.65058e-012
5.4117e-013
5.41491e-012
3.68149e-012
4.50539e-012
7.70669e-011
4.31169e-010
8.52035e-009
2.79742e-008
6.74155e-007
8.24856e-007
3.79323e-005
5.94294e-005
0.00151588
0.00452044
0.0430095
0.160348
0.817109
2.64133
8.04078
19.2499
39.5004
68.5461
102.644
137.78
170.83
201.744
229.205
253.065
273.059
288.632
294.411
293.056
292.259
290.156
285.922
280.585
274.747
265.285
236.821
152.421
44.0454
7.25149
1.28413
0.232959
0.0435037
0.00847972
0.00171427
0.000360204
7.8265e-005
1.75326e-005
4.01814e-006
9.39367e-007
2.22388e-007
5.3264e-008
1.2828e-008
3.13383e-009
6.23495e-010
1.14762e-012
1.49532e-012
3.00048e-012
4.31242e-013
2.96659e-012
3.41394e-012
6.13043e-012
7.74679e-011
4.45333e-010
8.50966e-009
2.93794e-008
6.70913e-007
8.99786e-007
3.75702e-005
5.53003e-005
0.00149367
0.00435357
0.0422508
0.156617
0.803728
2.6017
7.94555
19.0638
39.1916
68.1455
102.177
137.318
170.387
201.329
228.786
252.637
272.613
288.357
294.509
293.425
292.859
290.925
286.803
281.462
275.496
266.029
238.169
155.232
46.0025
7.5726
1.34354
0.242894
0.0453973
0.00884437
0.00178875
0.000376029
8.17692e-005
1.83328e-005
4.20592e-006
9.84237e-007
2.33276e-007
5.5931e-008
1.34867e-008
3.29765e-009
6.55677e-010
1.04919e-012
8.08578e-013
5.04113e-012
6.04998e-013
4.44729e-012
3.54647e-012
4.80824e-012
7.7349e-011
4.59515e-010
8.50423e-009
3.08141e-008
6.68135e-007
9.83699e-007
3.72457e-005
5.13657e-005
0.00147313
0.00417419
0.041508
0.152614
0.79004
2.55905
7.84349
18.8605
38.8628
67.7225
101.689
136.825
169.876
200.828
228.318
252.222
272.194
288.053
294.48
293.559
293.136
291.355
287.397
282.139
276.147
266.822
239.856
158.493
48.2574
8.00052
1.42461
0.257269
0.0481494
0.00938077
0.00189876
0.000399494
8.69804e-005
1.95263e-005
4.487e-006
1.05164e-006
2.49711e-007
5.99741e-008
1.44905e-008
3.5502e-009
7.05502e-010
1.27159e-012
1.13221e-012
3.9451e-012
4.57821e-013
2.46178e-012
3.32696e-012
6.71875e-012
7.76727e-011
4.71716e-010
8.49562e-009
3.20321e-008
6.65256e-007
1.05316e-006
3.69267e-005
4.79949e-005
0.00145339
0.00402858
0.0408343
0.149324
0.778098
2.52381
7.75829
18.6935
38.5829
67.3568
101.261
136.397
169.481
200.454
227.931
251.835
271.772
287.697
294.286
293.446
293.155
291.558
287.798
282.661
276.689
267.457
241.011
161
50.047
8.32531
1.47998
0.2667
0.0499163
0.00972073
0.00196799
0.00041419
9.02328e-005
2.02691e-005
4.66133e-006
1.0933e-006
2.59821e-007
6.24498e-008
1.51021e-008
3.70217e-009
7.35282e-010
1.06968e-012
8.62747e-013
4.71203e-012
3.15033e-013
3.72886e-012
3.39371e-012
4.77271e-012
7.76112e-011
4.84518e-010
8.49548e-009
3.33642e-008
6.63115e-007
1.13585e-006
3.66543e-005
4.48355e-005
0.00143539
0.00386224
0.0401561
0.145603
0.765323
2.48346
7.66113
18.4991
38.2677
66.9515
100.793
135.922
169.001
199.965
227.45
251.408
271.344
287.337
294.06
293.238
293.007
291.561
287.999
282.989
277.08
268.082
242.541
164.128
52.3239
8.81725
1.5703
0.283099
0.0530239
0.0103269
0.00209197
0.000440604
9.60925e-005
2.16114e-005
4.97752e-006
1.16923e-006
2.78358e-007
6.70195e-008
1.62387e-008
3.98933e-009
7.91146e-010
1.20031e-012
7.71211e-013
3.86575e-012
2.76702e-013
2.46364e-012
3.1453e-012
7.10649e-012
7.78843e-011
4.94534e-010
8.48611e-009
3.43839e-008
6.60445e-007
1.19632e-006
3.63665e-005
4.2185e-005
0.00141776
0.00373783
0.0395631
0.142746
0.754797
2.45268
7.58622
18.3519
38.018
66.6222
100.404
135.532
168.648
199.615
227.045
250.989
270.894
286.944
293.751
292.904
292.723
291.409
288.015
283.113
277.276
268.448
243.412
166.269
53.8866
9.12251
1.61815
0.291296
0.0545282
0.0106152
0.00215041
0.000452992
9.88322e-005
2.22368e-005
5.12421e-006
1.20423e-006
2.86836e-007
6.90902e-008
1.67487e-008
4.1158e-009
8.15937e-010
1.00296e-012
8.79486e-013
4.29632e-012
3.27063e-013
3.51931e-012
3.28668e-012
5.30457e-012
7.77268e-011
5.06777e-010
8.49261e-009
3.56676e-008
6.59038e-007
1.28016e-006
3.6145e-005
3.97976e-005
0.00140197
0.00357979
0.0389338
0.139227
0.742695
2.41384
7.49224
18.163
37.7113
66.2284
99.9496
135.074
168.188
199.12
226.513
250.469
270.357
286.492
293.45
292.573
292.377
291.124
287.839
283.004
277.261
268.76
244.729
169.306
56.2474
9.69856
1.72304
0.310586
0.0581602
0.0113232
0.00229478
0.000483695
0.000105632
2.37938e-005
5.49098e-006
1.29242e-006
3.08392e-007
7.44156e-008
1.8076e-008
4.45242e-009
8.80505e-010
9.76995e-013
7.65198e-013
4.69157e-012
3.07712e-013
2.79103e-012
3.23145e-012
7.2931e-012
7.78851e-011
5.14676e-010
8.4785e-009
3.64535e-008
6.56285e-007
1.32826e-006
3.58746e-005
3.78721e-005
0.00138615
0.00347895
0.0384199
0.13682
0.733618
2.38781
7.42827
18.0371
37.4947
65.9369
99.5987
134.73
167.884
198.791
226.091
249.97
269.784
285.977
293.058
292.158
291.967
290.769
287.557
282.753
277.08
268.803
245.307
171.053