/*--------------------------------*- C++ -*----------------------------------*\
| =========                 |                                                 |
| \\      /  F ield         | OpenFOAM: The Open Source CFD Toolbox           |
|  \\    /   O peration     | Version:  5.x                                   |
|   \\  /    A nd           | Web:      www.OpenFOAM.org                      |
|    \\/     M anipulation  |                                                 |
\*---------------------------------------------------------------------------*/
/*   Windows 32 and 64 bit porting by blueCAPE: http://www.bluecape.com.pt   *\
|  Based on Windows porting (2.0.x v4) by Symscape: http://www.symscape.com   |
\*---------------------------------------------------------------------------*/
FoamFile
{
    version     2.0;
    format      ascii;
    class       volScalarField;
    location    "0.002";
    object      p;
}
// * * * * * * * * * * * * * * * * * * * * * * * * * * * * * * * * * * * * * //

dimensions      [1 -1 -2 0 0 0 0];

internalField   nonuniform List<scalar> 
10000
(
100000
100000
100000
100000
100000
100000
100000
100000
100000
100000
100000
100000
100000
99999.9
99999.6
99997.5
99985.7
99931.9
99705.5
98990.3
97055.8
93039.7
86058
76694.6
66733.1
57379
49622.9
43400.2
38917.5
35303.2
33463.1
32218.5
29451.3
29462.4
29596.3
29610.5
29565.9
29328.6
28492.6
25858.3
16784.4
10946.4
10117.1
10019.2
10002.7
10000.3
10000.1
10000
10000
10000
10000
10000
10000
10000
10000
10000
10000
10000
10000
10000
100000
100000
100000
100000
100000
100000
100000
100000
100000
100000
100000
100000
100000
100000
99999.6
99997.8
99987.3
99939.7
99733.6
99075.3
97259.3
93442.7
86696
77499.6
67594.2
58194.5
50359.2
44051.4
39369.1
35596.4
33580.9
32341
29578
29557.8
29617.9
29692.8
29656.8
29450.5
28799
26752.6
18531.7
11257.2
10197.2
10029.8
10004.1
10000.6
10000.1
10000
10000
10000
10000
10000
10000
10000
10000
10000
10000
10000
10000
10000
100000
100000
100000
100000
100000
100000
100000
100000
100000
100000
100000
100000
100000
100000
99999.6
99997.9
99987.5
99940.2
99735.7
99081.9
97274.9
93471.2
86739.1
77544
67628.2
58207.5
50363.4
44021.2
39413.3
35602.5
33556
32241.1
29609.2
29560.6
29603.8
29685
29633.6
29381.6
28657
26634.4
19017.9
11388.2
10236.9
10037
10005.1
10000.8
10000.1
10000
10000
10000
10000
10000
10000
10000
10000
10000
10000
10000
10000
10000
100000
100000
100000
100000
100000
100000
100000
100000
100000
100000
100000
100000
100000
100000
99999.7
99998.1
99988.8
99946.4
99758.2
99151
97442
93809.4
87281.9
78248
68402.6
58975
51022
44547.2
39804.6
35864.3
33752.4
32335.3
29756.9
29601.9
29654.8
29724.8
29702.7
29558.6
29010.9
27263.1
20485.9
11607.7
10306.6
10047.8
10006.7
10001.1
10000.2
10000
10000
10000
10000
10000
10000
10000
10000
10000
10000
10000
10000
10000
100000
100000
100000
100000
100000
100000
100000
100000
100000
100000
100000
100000
100000
100000
99999.7
99998.2
99989
99947.3
99761.9
99162.4
97469.6
93860.9
87361.6
78333.5
68470.4
59002.1
51053.6
44598.4
39827.6
35921.6
33864.3
32356.6
29792.6
29592.3
29640.6
29710.3
29662.3
29463.2
28904.9
27200.9
21235
11803
10370.2
10057.2
10008.5
10001.4
10000.2
10000
10000
10000
10000
10000
10000
10000
10000
10000
10000
10000
10000
10000
100000
100000
100000
100000
100000
100000
100000
100000
100000
100000
100000
100000
100000
100000
99999.7
99998.4
99990
99952.3
99779.9
99218.8
97607.4
94145.6
87821.9
78944.9
69158.9
59710.7
51675.7
45101.9
40263.3
36310.2
34186.1
32502.8
29905.2
29627.9
29680.5
29789.2
29775.7
29653.5
29181.5
27706.5
22438.5
12055.7
10447
10068.7
10010.6
10001.7
10000.3
10000
10000
10000
10000
10000
10000
10000
10000
10000
10000
10000
10000
10000
100000
100000
100000
100000
100000
100000
100000
100000
100000
100000
100000
100000
100000
100000
99999.7
99998.4
99990.2
99953.4
99784.6
99233.4
97643.2
94212.4
87928.7
79059.5
69247.8
59732.9
51727
45190.8
40315.5
36334.5
34189.2
32515.2
29959
29643.5
29692.9
29790.4
29760.2
29617.5
29178.5
27802.2
23206.7
12353.6
10526.1
10080.4
10012.9
10002.1
10000.4
10000.1
10000
10000
10000
10000
10000
10000
10000
10000
10000
10000
10000
10000
100000
100000
100000
100000
100000
100000
100000
100000
100000
100000
100000
100000
100000
100000
99999.7
99998.6
99991
99957.3
99799.1
99279.6
97757.4
94450.5
88320.1
79586.6
69859.7
60397.8
52282.2
45621
40703.7
36621.5
34334.3
32647.6
30100.2
29704.3
29750.1
29842.8
29831.6
29734.6
29366.9
28203.7
24001.4
12868.8
10612.1
10093.9
10015.4
10002.6
10000.4
10000.1
10000
10000
10000
10000
10000
10000
10000
10000
10000
10000
10000
10000
100000
100000
100000
100000
100000
100000
100000
100000
100000
100000
100000
100000
100000
100000
99999.8
99998.6
99991.3
99958.5
99804.3
99295.9
97798.2
94527.3
88445.9
79727
69977.6
60433.7
52326
45695.1
40729.1
36618.3
34338.7
32731
30179.2
29707.3
29744.5
29818
29799.5
29704.6
29379.8
28313.1
24436.3
13500.2
10700.4
10108.7
10018.1
10003.1
10000.5
10000.1
10000
10000
10000
10000
10000
10000
10000
10000
10000
10000
10000
10000
100000
100000
100000
100000
100000
100000
100000
100000
100000
100000
100000
100000
100000
100000
99999.8
99998.7
99991.9
99961.7
99816.1
99334
97893.7
94727
88782.4
80185
70512.9
61044.3
52866.4
46100
41053.9
36925.6
34533.5
32937.3
30362.2
29708
29741.8
29824.6
29829.1
29769.4
29489.1
28537.8
24908.7
14194.3
10793.1
10125.2
10021.1
10003.8
10000.6
10000.1
10000
10000
10000
10000
10000
10000
10000
10000
10000
10000
10000
10000
100000
100000
100000
100000
100000
100000
100000
100000
100000
100000
100000
100000
100000
100000
99999.8
99998.8
99992.2
99962.9
99821.5
99351.1
97936.9
94809.8
88921.7
80346.7
70651.7
61085.2
52914
46212.6
41134.9
36982.1
34557.8
33035.8
30463.3
29640
29679
29770.5
29796
29753.9
29506.9
28602.5
25212.6
14911.5
10889.1
10143.4
10024.5
10004.4
10000.7
10000.1
10000
10000
10000
10000
10000
10000
10000
10000
10000
10000
10000
10000
100000
100000
100000
100000
100000
100000
100000
100000
100000
100000
100000
100000
100000
100000
99999.8
99998.9
99992.7
99965.5
99831.3
99382.8
98017.6
94978.6
89213.6
80747.5
71123.3
61641.5
53406.4
46572
41434.2
37260.3
34680.8
33196.6
30695.8
29610.7
29643.3
29741.4
29848.4
29816.5
29599.4
28760
25567.1
15644.6
10990.9
10163.4
10028.3
10005.1
10000.8
10000.2
10000
10000
10000
10000
10000
10000
10000
10000
10000
10000
10000
10000
100000
100000
100000
100000
100000
100000
100000
100000
100000
100000
100000
100000
100000
100000
99999.8
99998.9
99992.9
99966.7
99836.7
99399.8
98061.3
95063.6
89358.8
80921.1
71281.2
61704.7
53478
46679.5
41510
37288.1
34679.3
33232
30803.4
29545.7
29589
29695.2
29856.3
29826.2
29625.4
28832.4
25856.1
16383.1
11097.5
10185.3
10032.6
10005.8
10000.9
10000.2
10000
10000
10000
10000
10000
10000
10000
10000
10000
10000
10000
10000
100000
100000
100000
100000
100000
100000
100000
100000
100000
100000
100000
100000
100000
100000
99999.8
99999
99993.3
99968.8
99844.9
99426.4
98130.2
95207.7
89611.8
81267.8
71695
62208.8
53927.3
47010.4
41780
37517.8
34758
33334.2
30953.2
29545.9
29577.4
29678.2
29876.6
29857.8
29683.7
28956.8
26200.7
17142.5
11209.6
10209.4
10037.5
10006.5
10001
10000.2
10000
10000
10000
10000
10000
10000
10000
10000
10000
10000
10000
10000
100000
100000
100000
100000
100000
100000
100000
100000
100000
100000
100000
100000
100000
100000
99999.8
99999.1
99993.6
99970
99850
99442.9
98173.2
95293.2
89758.6
81446.2
71864.2
62285.8
54004.4
47136.9
41878.5
37564.1
34748.6
33312.8
31049.9
29523.6
29561.5
29662.3
29860.5
29841
29690.3
29023.7
26483.5
17913.1
11325.4
10235.8
10042.8
10007.3
10001.2
10000.2
10000
10000
10000
10000
10000
10000
10000
10000
10000
10000
10000
10000
100000
100000
100000
100000
100000
100000
100000
100000
100000
100000
100000
100000
100000
100000
99999.8
99999.1
99993.9
99971.7
99856.9
99465.6
98232.8
95418.7
89981.5
81751.4
72227.1
62735
54405.5
47438.4
42114.9
37791.4
34870.6
33414.5
31214.2
29537.6
29563.2
29661.4
29861.1
29852.2
29725.3
29119.6
26768.8
18685.7
11445.1
10265.1
10048.5
10008
10001.4
10000.3
10000
10000
10000
10000
10000
10000
10000
10000
10000
10000
10000
10000
100000
100000
100000
100000
100000
100000
100000
100000
100000
100000
100000
100000
100000
100000
99999.8
99999.2
99994.1
99972.8
99861.7
99481.2
98274.2
95502.8
90127.4
81933.6
72405.2
62829.7
54498.1
47575.3
42231.8
37892.5
34916.5
33423.3
31318.3
29511.5
29548.3
29651.2
29858.1
29852.7
29743.8
29185.6
27006.6
19437.9
11567.4
10297.5
10054.6
10008.8
10001.6
10000.3
10000.1
10000
10000
10000
10000
10000
10000
10000
10000
10000
10000
10000
100000
100000
100000
100000
100000
100000
100000
100000
100000
100000
100000
100000
100000
100000
99999.8
99999.2
99994.4
99974.2
99867.6
99500.8
98326.1
95612.3
90324.4
82204.3
72724.3
63215.4
54849.6
47855.8
42458.3
38140
35098.6
33536.1
31446.7
29527.1
29552.1
29652.8
29866.9
29873.4
29779.5
29263
27240.2
20171.9
11692.3
10333.7
10060.8
10009.7
10001.8
10000.3
10000.1
10000
10000
10000
10000
10000
10000
10000
10000
10000
10000
10000
100000
100000
100000
100000
100000
100000
100000
100000
100000
100000
100000
100000
100000
100000
99999.9
99999.3
99994.6
99975.2
99872
99515.4
98365
95692.2
90466.2
82386
72907.6
63331.7
54959.4
47993.4
42576.6
38253.9
35148.7
33557
31542.9
29520.6
29551.9
29651.6
29862.5
29891.8
29806.1
29324.7
27451.4
20882
11818.6
10373.9
10067
10010.7
10002.1
10000.4
10000.1
10000
10000
10000
10000
10000
10000
10000
10000
10000
10000
10000
100000
100000
100000
100000
100000
100000
100000
100000
100000
100000
100000
100000
100000
100000
99999.9
99999.3
99994.8
99976.5
99877.1
99532.3
98410.5
95788.6
90641.8
82627.9
73189.3
63661.8
55273.4
48238.1
42761.3
38442.9
35287
33662.4
31671.5
29546.5
29567.6
29656.6
29854.2
29915
29837
29387.6
27650.7
21571.1
11949.4
10418
10073.2
10011.8
10002.3
10000.4
10000.1
10000
10000
10000
10000
10000
10000
10000
10000
10000
10000
10000
100000
100000
100000
100000
100000
100000
100000
100000
100000
100000
100000
100000
100000
100000
99999.9
99999.4
99995
99977.4
99881
99545.9
98447
95864.7
90778.1
82805.8
73373.9
63795.9
55397.2
48367.6
42871.6
38534.8
35338.3
33707.8
31772.3
29551.6
29575.6
29656.9
29835.4
29930.7
29859.4
29436.6
27822.6
22226.4
12085.7
10465.6
10079.3
10013.1
10002.5
10000.4
10000.1
10000
10000
10000
10000
10000
10000
10000
10000
10000
10000
10000
100000
100000
100000
100000
100000
100000
100000
100000
100000
100000
100000
100000
100000
100000
99999.9
99999.4
99995.2
99978.4
99885.4
99560.8
98487.4
95951.5
90936.2
83023.1
73624.9
64083.9
55675.1
48588.1
43037.9
38693.7
35463.7
33810.7
31881.5
29576.6
29594.6
29661.6
29815.1
29945.6
29879.4
29484.6
27990.7
22843.8
12232.8
10516.2
10085.6
10014.5
10002.8
10000.5
10000.1
10000
10000
10000
10000
10000
10000
10000
10000
10000
10000
10000
100000
100000
100000
100000
100000
100000
100000
100000
100000
100000
100000
100000
100000
100000
99999.9
99999.4
99995.4
99979.3
99889
99573.2
98521.5
96023.7
91066.2
83194.6
73807.4
64229.9
55805.6
48713.8
43158.8
38797.8
35518.7
33831.5
31951.8
29594.2
29609
29663.4
29793.6
29948.9
29890.2
29525.6
28149.1
23395.3
12416.3
10568.9
10091.9
10016.1
10003
10000.5
10000.1
10000
10000
10000
10000
10000
10000
10000
10000
10000
10000
10000
100000
100000
100000
100000
100000
100000
100000
100000
100000
100000
100000
100000
100000
100000
99999.9
99999.5
99995.5
99980.2
99892.7
99586.4
98557.6
96101.9
91209.6
83391.5
74033.4
64483.6
56045.6
48912.1
43315.7
38942.1
35609.6
33895.1
32022.3
29624.6
29628.8
29667.7
29778.6
29953.9
29899.8
29564.1
28295.5
23846.1
12676.2
10623.1
10098.7
10017.8
10003.3
10000.6
10000.1
10000
10000
10000
10000
10000
10000
10000
10000
10000
10000
10000
100000
100000
100000
100000
100000
100000
100000
100000
100000
100000
100000
100000
100000
100000
99999.9
99999.5
99995.7
99981
99895.9
99597.8
98589
96169.3
91332.5
83555.4
74211.6
64634.1
56179.8
49039.9
43437.3
39033.9
35643.4
33893.1
32065.1
29665.2
29631.5
29666.9
29770.6
29956.7
29908.8
29599.6
28421.6
24177
13021.9
10677.5
10105.8
10019.6
10003.6
10000.6
10000.1
10000
10000
10000
10000
10000
10000
10000
10000
10000
10000
10000
100000
100000
100000
100000
100000
100000
100000
100000
100000
100000
100000
100000
100000
100000
99999.9
99999.5
99995.8
99981.7
99899.2
99609.5
98621.4
96240
91463.1
83735.2
74417.1
64857.7
56387.5
49230.3
43582.7
39164
35757.3
33950.8
32115.5
29724
29628.1
29668.5
29773.7
29963.9
29921.6
29637.4
28533.7
24456.9
13404.6
10731.7
10113.7
10021.5
10003.8
10000.7
10000.1
10000
10000
10000
10000
10000
10000
10000
10000
10000
10000
10000
100000
100000
100000
100000
100000
100000
100000
100000
100000
100000
100000
100000
100000
100000
99999.9
99999.5
99995.9
99982.4
99902
99619.8
98650.3
96302.8
91578.4
83891
74589.3
65007.3
56524
49360.3
43698.2
39259.4
35810.5
33950.9
32151.9
29784.1
29627
29670.1
29776.6
29972.2
29935.4
29675.7
28633.6
24729.7
13798
10784.7
10122.2
10023.4
10004.1
10000.8
10000.1
10000
10000
10000
10000
10000
10000
10000
10000
10000
10000
10000
100000
100000
100000
100000
100000
100000
100000
100000
100000
100000
100000
100000
100000
100000
99999.9
99999.6
99996
99983.1
99904.9
99630.2
98679.5
96367
91697.9
84056.5
74778.2
65205.2
56710.2
49535.4
43830.3
39386.5
35909
33992.6
32198.4
29849.1
29630
29674.6
29781.8
29984.8
29951.8
29713.8
28728.5
24998.9
14205.8
10837.3
10131.7
10025.4
10004.4
10000.8
10000.2
10000
10000
10000
10000
10000
10000
10000
10000
10000
10000
10000
100000
100000
100000
100000
100000
100000
100000
100000
100000
100000
100000
100000
100000
100000
99999.9
99999.6
99996.1
99983.7
99907.4
99639.6
98706
96425.1
91805.6
84203.8
74943.2
65350.9
56849
49652.6
43936.2
39482.5
35954.4
33989.7
32240.7
29908.8
29630.7
29678.7
29789.6
29998
29968.9
29750.1
28816.4
25235
14617.6
10888
10141.9
10027.4
10004.8
10000.9
10000.2
10000
10000
10000
10000
10000
10000
10000
10000
10000
10000
10000
100000
100000
100000
100000
100000
100000
100000
100000
100000
100000
100000
100000
100000
100000
99999.9
99999.6
99996.2
99984.4
99909.9
99649
98732.4
96483.8
91915.3
84357.1
75118.1
65528
57021.1
49821.8
44058.8
39602
36046.4
34021.6
32293.5
29971.5
29632.3
29683.9
29799.9
30012.4
29986.4
29785.1
28899.8
25462.3
15038.1
10938.4
10153.3
10029.4
10005.1
10001
10000.2
10000
10000
10000
10000
10000
10000
10000
10000
10000
10000
10000
100000
100000
100000
100000
100000
100000
100000
100000
100000
100000
100000
100000
100000
100000
99999.9
99999.6
99996.3
99984.9
99912.1
99657.6
98756.6
96537.4
92015.5
84495.7
75274.8
65668.6
57158
49930.8
44156.2
39688.1
36104.2
34042.1
32347.3
30029.4
29634.3
29688.6
29809.4
30025.7
30002.8
29817.5
28976
25664.7
15456
10987.2
10165.4
10031.4
10005.5
10001
10000.2
10000
10000
10000
10000
10000
10000
10000
10000
10000
10000
10000
100000
100000
100000
100000
100000
100000
100000
100000
100000
100000
100000
100000
100000
100000
99999.9
99999.7
99996.4
99985.5
99914.3
99666.1
98780.5
96591.3
92116.6
84638.2
75437.2
65830.6
57317.4
50075.4
44266.6
39792.7
36201.5
34097.3
32409.9
30089.8
29638.4
29694.2
29817.5
30037.9
30017.7
29847.7
29047.9
25862.1
15878.3
11037
10178.5
10033.5
10005.8
10001.1
10000.2
10000
10000
10000
10000
10000
10000
10000
10000
10000
10000
10000
100000
100000
100000
100000
100000
100000
100000
100000
100000
100000
100000
100000
100000
100000
99999.9
99999.7
99996.5
99986
99916.4
99673.9
98802.7
96640.9
92209.6
84768.2
75585
65966
57448.6
50178
44351.9
39867.7
36269
34126.9
32469.4
30145
29640.9
29698.1
29823.4
30047.9
30030.6
29875.2
29113.6
26040.5
16295.1
11086.2
10192.1
10035.6
10006.2
10001.2
10000.2
10000
10000
10000
10000
10000
10000
10000
10000
10000
10000
10000
100000
100000
100000
100000
100000
100000
100000
100000
100000
100000
100000
100000
100000
100000
99999.9
99999.7
99996.6
99986.5
99918.3
99681.7
98824.5
96690.5
92303.2
84901.2
75736.4
66117.2
57595.2
50316.1
44451.6
39960.5
36361.5
34198.3
32534.6
30203.8
29643.4
29700.9
29827.7
30057.5
30042.7
29901.1
29177
26222.4
16716
11138
10206.6
10037.8
10006.7
10001.3
10000.2
10000
10000
10000
10000
10000
10000
10000
10000
10000
10000
10000
100000
100000
100000
100000
100000
100000
100000
100000
100000
100000
100000
100000
100000
100000
99999.9
99999.7
99996.7
99986.9
99920.1
99688.8
98844.8
96736.2
92389.2
85022.5
75875
66247
57717.1
50402.8
44525.8
40025.2
36425.8
34242.5
32595.7
30254
29642.7
29701.4
29830.2
30066.2
30054.3
29925.3
29235.1
26386.2
17126.1
11190.1
10221.1
10039.9
10007.1
10001.3
10000.3
10000.1
10000
10000
10000
10000
10000
10000
10000
10000
10000
10000
100000
100000
100000
100000
100000
100000
100000
100000
100000
100000
100000
100000
100000
100000
99999.9
99999.7
99996.7
99987.3
99921.9
99695.8
98864.7
96782.1
92476
85147.2
76017.1
66389.9
57851.5
50535.5
44618
40107.2
36507.2
34303.8
32661.2
30305.5
29642.3
29701.2
29831.8
30074.8
30065.5
29948.7
29292.8
26553.7
17536.2
11246.3
10236.5
10042.2
10007.5
10001.4
10000.3
10000.1
10000
10000
10000
10000
10000
10000
10000
10000
10000
10000
100000
100000
100000
100000
100000
100000
100000
100000
100000
100000
100000
100000
100000
100000
99999.9
99999.7
99996.8
99987.7
99923.5
99702.2
98883.1
96824.3
92555.3
85260
76146.7
66512.8
57962.8
50616.3
44686.7
40166.6
36567.2
34346.9
32719.6
30351.6
29639.4
29699.5
29832.1
30081.8
30076.2
29970.4
29345.5
26704.2
17924.4
11302.8
10251.7
10044.5
10008
10001.5
10000.3
10000.1
10000
10000
10000
10000
10000
10000
10000
10000
10000
10000
100000
100000
100000
100000
100000
100000
100000
100000
100000
100000
100000
100000
100000
100000
99999.9
99999.7
99996.9
99988.1
99925.1
99708.6
98901.4
96866.9
92636.1
85377.3
76280.8
66648.6
58086.8
50742.9
44779
40247.1
36641.9
34397.6
32781.5
30404.2
29639
29698.1
29831.3
30088.3
30086.9
29991.7
29398.3
26860.1
18307.9
11365.6
10267.8
10047
10008.5
10001.6
10000.3
10000.1
10000
10000
10000
10000
10000
10000
10000
10000
10000
10000
100000
100000
100000
100000
100000
100000
100000
100000
100000
100000
100000
100000
100000
100000
99999.9
99999.8
99996.9
99988.5
99926.5
99714.4
98918.2
96905.5
92708.8
85481.8
76401.6
66763.1
58187.5
50821.4
44848.9
40308.9
36697.3
34428.7
32835.6
30443.8
29634.7
29695.2
29829.4
30092.1
30097.8
30010.1
29445.1
26996.9
18655.2
11428.8
10283.1
10049.4
10008.9
10001.7
10000.3
10000.1
10000
10000
10000
10000
10000
10000
10000
10000
10000
10000
100000
100000
100000
100000
100000
100000
100000
100000
100000
100000
100000
100000
100000
100000
99999.9
99999.8
99997
99988.9
99928
99720.2
98935
96945.3
92784.5
85592.6
76529.2
66892.5
58303.8
50942.9
44944.5
40390.7
36764.4
34471.6
32894.6
30487.3
29635.6
29693.2
29827.3
30094.9
30107.9
30027.5
29492.4
27141.4
19001.7
11501.2
10299.8
10052.1
10009.4
10001.8
10000.3
10000.1
10000
10000
10000
10000
10000
10000
10000
10000
10000
10000
100000
100000
100000
100000
100000
100000
100000
100000
100000
100000
100000
100000
100000
100000
99999.9
99999.8
99997
99989.2
99929.2
99725.5
98950.2
96980.6
92850.8
85688.8
76641.2
66997.3
58394.6
51017.4
45014.8
40452
36814.2
34496.5
32944
30518.1
29630.2
29690.2
29825.5
30094.8
30116.4
30041.3
29532.5
27262
19300.8
11573.2
10314.9
10054.6
10009.9
10001.9
10000.4
10000.1
10000
10000
10000
10000
10000
10000
10000
10000
10000
10000
100000
100000
100000
100000
100000
100000
100000
100000
100000
100000
100000
100000
100000
100000
99999.9
99999.8
99997.1
99989.5
99930.5
99730.8
98965.8
97017.8
92922.1
85794.2
76763.5
67121.2
58506.3
51134.5
45111.2
40531.4
36876.6
34532.4
32999.1
30558.6
29635.6
29690.3
29824.2
30094.1
30124
30054.8
29574
27394.6
19617.8
11657.1
10332
10057.6
10010.5
10002
10000.4
10000.1
10000
10000
10000
10000
10000
10000
10000
10000
10000
10000
100000
100000
100000
100000
100000
100000
100000
100000
100000
100000
100000
100000
100000
100000
99999.9
99999.8
99997.1
99989.8
99931.7
99735.5
98979.5
97049.9
92982
85881.9
76866.3
67215.3
58587.9
51202.7
45177.9
40588.7
36924.3
34552.7
33043.3
30594.4
29635.6
29690.3
29823.1
30089.7
30128.8
30064.2
29606.5
27499.5
19879.1
11736.6
10346.8
10060.2
10010.9
10002
10000.4
10000.1
10000
10000
10000
10000
10000
10000
10000
10000
10000
10000
100000
100000
100000
100000
100000
100000
100000
100000
100000
100000
100000
100000
100000
100000
99999.9
99999.8
99997.2
99990.1
99932.9
99740.5
98994.1
97085.1
93049.8
85983.1
76984.7
67335
58697.7
51315.4
45271.5
40664.2
36984.8
34583.2
33095
30653.4
29640.6
29692.4
29822.5
30085.7
30133.9
30074.5
29643.3
27625.6
20181.5
11831.2
10365
10063.6
10011.5
10002.2
10000.4
10000.1
10000
10000
10000
10000
10000
10000
10000
10000
10000
10000
100000
100000
100000
100000
100000
100000
100000
100000
100000
100000
100000
100000
100000
100000
99999.9
99999.8
99997.2
99990.3
99933.9
99744.7
99006.3
97113.8
93103.3
86062.1
77077.5
67417.8
58770.2
51375.7
45330.8
40715.3
37029
34601
33135.5
30680.2
29643.8
29694.5
29821.4
30078.3
30136.4
30080.8
29669.7
27718.2
20410.5
11914.3
10379.4
10066.2
10012
10002.2
10000.4
10000.1
10000
10000
10000
10000
10000
10000
10000
10000
10000
10000
100000
100000
100000
100000
100000
100000
100000
100000
100000
100000
100000
100000
100000
100000
99999.9
99999.8
99997.2
99990.6
99935
99749.3
99020.2
97147.4
93168.4
86160.3
77193.6
67535.1
58879.9
51484.5
45418.5
40785.3
37086.5
34630.4
33184.4
30723.5
29655.5
29699.9
29821.3
30073.5
30140.4
30089.6
29704.2
27841.6
20702.3
12019.6
10399.5
10069.9
10012.6
10002.4
10000.5
10000.1
10000
10000
10000
10000
10000
10000
10000
10000
10000
10000
100000
100000
100000
100000
100000
100000
100000
100000
100000
100000
100000
100000
100000
100000
99999.9
99999.8
99997.3
99990.8
99935.9
99753
99030.8
97172.8
93215.4
86230.1
77275.2
67605.9
58942.8
51536.6
45469.3
40829.1
37124.6
34647.3
33219.9
30745.6
29660.7
29704.7
29822.1
30069
30142
30094.2
29724.6
27920.3
20897.7
12101.7
10413.3
10072.4
10013.1
10002.4
10000.5
10000.1
10000
10000
10000
10000
10000
10000
10000
10000
10000
10000
100000
100000
100000
100000
100000
100000
100000
100000
100000
100000
100000
100000
100000
100000
99999.9
99999.9
99997.3
99991.1
99937
99757.5
99044.2
97205.3
93278.7
86326.7
77391
67722.8
59053.2
51642.2
45549.4
40893.1
37178
34676
33264.3
30785.9
29675.6
29712.6
29823.6
30066.8
30146.2
30102.9
29758.1
28043
21183.5
12219.8
10436.2
10076.7
10013.8
10002.6
10000.5
10000.1
10000
10000
10000
10000
10000
10000
10000
10000
10000
10000
100000
100000
100000
100000
100000
100000
100000
100000
100000
100000
100000
100000
100000
100000
99999.9
99999.9
99997.3
99991.3
99937.7
99760.6
99053.2
97227.2
93318.9
86386.4
77459.3
67781.2
59105.9
51687.1
45592.7
40929.7
37208.2
34689.8
33294.1
30806
29683.6
29719.2
29825.7
30063
30147.7
30106.5
29772.7
28105.6
21347.2
12293.3
10448.7
10078.8
10014.2
10002.6
10000.5
10000.1
10000
10000
10000
10000
10000
10000
10000
10000
10000
10000
100000
100000
100000
100000
100000
100000
100000
100000
100000
100000
100000
100000
100000
100000
99999.9
99999.9
99997.4
99991.5
99938.7
99765
99066.4
97259.2
93381.7
86483.5
77577.6
67900
59217.4
51789.5
45665.7
40989.1
37258.2
34719
33336.5
30847.2
29701.7
29729
29829.8
30065.2
30152
30115.2
29806.7
28230.5
21631.2
12430.6
10475.7
10083.8
10015.1
10002.8
10000.5
10000.1
10000
10000
10000
10000
10000
10000
10000
10000
10000
10000
100000
100000
100000
100000
100000
100000
100000
100000
100000
100000
100000
100000
100000
100000
99999.9
99999.9
99997.4
99991.9
99940.4
99772.1
99086.6
97308.2
93467.4
86604
77695.8
68000.1
59313.9
51886.6
45768.1
41066.1
37316.5
34743.3
33400.9
30895.9
29729
29752.4
29843.2
30062
30156.3
30124.3
29829.7
28350.4
22000.3
12571.7
10502.5
10088
10015.7
10002.9
10000.6
10000.1
10000
10000
10000
10000
10000
10000
10000
10000
10000
10000
100000
100000
100000
100000
100000
100000
100000
100000
100000
100000
100000
100000
100000
100000
99999.9
99999.9
99997.4
99991.6
99939.2
99767.1
99070.1
97269.6
93377.2
86471.9
77520.7
67779.7
59086
51648.9
45500.8
40870.5
37195.8
34697.9
33377.3
30877.5
29744.8
29784.5
29886.3
30106
30172.6
30127.7
29785.3
28138.4
21763.2
12303.2
10437.6
10074.2
10013.1
10002.4
10000.5
10000.1
10000
10000
10000
10000
10000
10000
10000
10000
10000
10000
100000
100000
100000
100000
100000
100000
100000
100000
100000
100000
100000
100000
100000
100000
99999.9
99999.9
99997.5
99992.1
99940.6
99774.2
99089.4
97319.2
93466.4
86604.3
77642.5
67909.5
59201.9
51775.5
45649.1
40963.6
37284.6
34776.3
33477
31059.4
29814.1
29845.7
29932.8
30130.8
30213.4
30180.4
29884.8
28382.5
22137.8
12329.8
10436.1
10072.6
10012.6
10002.3
10000.4
10000.1
10000
10000
10000
10000
10000
10000
10000
10000
10000
10000
100000
100000
100000
100000
100000
100000
100000
100000
100000
100000
100000
100000
100000
100000
99999.9
99999.9
99997.5
99991.9
99940.6
99772.4
99084.4
97306.8
93421.9
86533.4
77534.3
67730
58996.2
51569.6
45378.9
40865.5
37236.4
34627.6
33298.5
30993.5
29873.9
29905
29989.5
30177.5
30225.5
30180.6
29842.5
28275.4
22013
12228.6
10408.8
10066.8
10011.5
10002.1
10000.4
10000.1
10000
10000
10000
10000
10000
10000
10000
10000
10000
10000
100000
100000
100000
100000
100000
100000
100000
100000
100000
100000
100000
100000
100000
100000
99999.9
99999.9
99997.6
99992.1
99941.3
99776.5
99095.4
97338.3
93475.8
86616.1
77607.5
67788.6
59051.9
51692.1
45674.9
40941
37125.5
34420.2
33167.1
30984.3
29951
29978.5
30059.9
30244.3
30308.1
30272.8
29961.6
28429
22091.4
12202.8
10398.2
10064.1
10010.8
10001.9
10000.4
10000.1
10000
10000
10000
10000
10000
10000
10000
10000
10000
10000
100000
100000
100000
100000
100000
100000
100000
100000
100000
100000
100000
100000
100000
100000
99999.9
99999.9
99997.6
99992
99941.9
99776.8
99097.8
97341.2
93466.3
86592.2
77553
67668.6
58900.2
51503.5
45290
40631.5
36839.2
34187.9
33004.2
30930.8
29965.5
29999.8
30093.7
30293.7
30330.3
30284.1
29944.2
28379.4
21979.2
12148.2
10384.6
10061.2
10010.2
10001.8
10000.3
10000.1
10000
10000
10000
10000
10000
10000
10000
10000
10000
10000
100000
100000
100000
100000
100000
100000
100000
100000
100000
100000
100000
100000
100000
100000
99999.9
99999.9
99997.6
99992.1
99942.5
99780.1
99105.2
97362.3
93499.6
86641.6
77583
67683.2
58889.8
51516.4
45477.5
40871
37095.6
34439.6
33204.3
31039.3
29962.3
29999
30103
30327.4
30340.5
30293.8
29940.3
28333.9
21883.7
12119.8
10376.2
10059.1
10009.8
10001.7
10000.3
10000.1
10000
10000
10000
10000
10000
10000
10000
10000
10000
10000
100000
100000
100000
100000
100000
100000
100000
100000
100000
100000
100000
100000
100000
100000
99999.9
99999.9
99997.7
99992.1
99943.1
99780
99111.1
97374.4
93513.5
86649
77565.4
67617.3
58784.6
51377.9
45236.8
40731.6
37109.2
34467
33214.5
31072
29917.5
29959.6
30075.4
30296.4
30290.9
30219.1
29830.8
28209.2
21765
12089.2
10369
10057.4
10009.4
10001.6
10000.3
10000.1
10000
10000
10000
10000
10000
10000
10000
10000
10000
10000
100000
100000
100000
100000
100000
100000
100000
100000
100000
100000
100000
100000
100000
100000
99999.9
99999.9
99997.7
99992.1
99943.8
99784.3
99117.9
97391.6
93540.4
86681.3
77580.9
67598.4
58732.1
51335.2
45324.1
40836
37041.1
34383.8
33157.3
31119.2
29884.4
29930.2
30054.8
30302.4
30299.4
30245
29886
28259.4
21743.8
12069.3
10363.4
10056.2
10009.1
10001.6
10000.3
10000.1
10000
10000
10000
10000
10000
10000
10000
10000
10000
10000
100000
100000
100000
100000
100000
100000
100000
100000
100000
100000
100000
100000
100000
100000
99999.9
99999.8
99997.8
99992.1
99944.4
99784.1
99124.9
97406.2
93565.7
86704.4
77591.8
67555.9
58655.1
51248.9
45145.3
40493.7
36738
34103.2
32977.6
31071.5
29855.2
29906.2
30041.7
30282.9
30278
30215.7
29854.1
28234.6
21679.8
12047.5
10358.3
10055.2
10009
10001.5
10000.3
10000.1
10000
10000
10000
10000
10000
10000
10000
10000
10000
10000
100000
100000
100000
100000
100000
100000
100000
100000
100000
100000
100000
100000
100000
100000
99999.9
99999.8
99997.8
99992.1
99945.1
99787.1
99132.3
97422.1
93593.1
86734.4
77614.5
67526.4
58584.1
51170.9
45103.6
40659.4
36972.4
34426.4
33260.3
31265.1
29857.6
29907.1
30036.7
30265
30262.8
30205.3
29834.7
28192.4
21586
12027.9
10354.5
10054.5
10008.8
10001.5
10000.3
10000.1
10000
10000
10000
10000
10000
10000
10000
10000
10000
10000
100000
100000
100000
100000
100000
100000
100000
100000
100000
100000
100000
100000
100000
100000
99999.9
99999.8
99997.9
99992.1
99945.7
99788.3
99139.8
97438.5
93622.2
86766.9
77642.1
67501.8
58506
51070.5
45024.5
40649.7
37145
34737.3
33558.6
31472.6
29926.2
29969.8
30079.6
30255.5
30246.4
30168.7
29787.1
28174.2
21533.8
12012.2
10351
10054
10008.8
10001.5
10000.3
10000.1
10000
10000
10000
10000
10000
10000
10000
10000
10000
10000
100000
100000
100000
100000
100000
100000
100000
100000
100000
100000
100000
100000
100000
100000
99999.9
99999.8
99997.9
99992.1
99946.3
99790.1
99146.7
97457.6
93653.2
86806.2
77676.1
67485.5
58424.2
50956.3
44967.1
40773.5
37348.7
35041.7
33848.6
31704.8
30128.1
30157.4
30233.6
30365.1
30363.4
30307.9
29959.3
28374.8
21586.5
11999.9
10347.4
10053.7
10008.8
10001.5
10000.3
10000.1
10000
10000
10000
10000
10000
10000
10000
10000
10000
10000
100000
100000
100000
100000
100000
100000
100000
100000
100000
100000
100000
100000
100000
100000
99999.9
99999.8
99998
99992
99946.9
99791.5
99153
97477.8
93685.4
86851.9
77717.4
67475.4
58335.8
50846
44844.8
40527.8
37078.5
34900.6
33821.7
31792.8
30388.2
30403.4
30439.8
30521.1
30538.6
30492.1
30171.8
28601.6
21588.2
11980.1
10343.8
10053.7
10008.8
10001.5
10000.3
10000.1
10000
10000
10000
10000
10000
10000
10000
10000
10000
10000
100000
100000
100000
100000
100000
100000
100000
100000
100000
100000
100000
100000
100000
100000
100000
99999.8
99998
99992
99947.6
99792.8
99158.9
97498.2
93717.1
86902.4
77762
67470.4
58255.7
50741.9
44630.6
40076.7
36340.7
34128.4
33141.6
31691.3
30635
30646.9
30650.4
30663.1
30699.9
30654.5
30317.5
28646.7
21336.8
11958
10342.1
10054.1
10008.9
10001.5
10000.3
10000.1
10000
10000
10000
10000
10000
10000
10000
10000
10000
10000
100000
100000
100000
100000
100000
100000
100000
100000
100000
100000
100000
100000
100000
100000
100000
99999.8
99998.1
99991.9
99948.2
99793.9
99164.8
97518
93748.8
86958.9
77808
67467.4
58194.8
50639.1
44409.4
39637.7
35661.3
33181.7
32071.1
31662
30825.3
30779
30732.6
30733.9
30720.1
30588.5
30037.8
28123.5
20929.6
11946.6
10343.4
10054.9
10009
10001.6
10000.3
10000.1
10000
10000
10000
10000
10000
10000
10000
10000