/*--------------------------------*- C++ -*----------------------------------*\
| =========                 |                                                 |
| \\      /  F ield         | OpenFOAM: The Open Source CFD Toolbox           |
|  \\    /   O peration     | Version:  5.x                                   |
|   \\  /    A nd           | Web:      www.OpenFOAM.org                      |
|    \\/     M anipulation  |                                                 |
\*---------------------------------------------------------------------------*/
/*   Windows 32 and 64 bit porting by blueCAPE: http://www.bluecape.com.pt   *\
|  Based on Windows porting (2.0.x v4) by Symscape: http://www.symscape.com   |
\*---------------------------------------------------------------------------*/
FoamFile
{
    version     2.0;
    format      ascii;
    class       surfaceScalarField;
    location    "0.002";
    object      phi;
}
// * * * * * * * * * * * * * * * * * * * * * * * * * * * * * * * * * * * * * //

dimensions      [1 0 -1 0 0 0 0];

internalField   nonuniform List<scalar> 
19740
(
3.85785e-014
1.1724e-013
-3.2507e-014
-2.63789e-013
-6.88945e-014
-6.17284e-013
-2.31776e-014
1.63425e-013
7.82967e-014
1.04894e-012
1.85416e-013
1.66089e-013
2.15551e-012
-1.2621e-012
2.45759e-011
-3.03224e-012
2.94784e-010
-2.08478e-011
2.83231e-009
-2.22096e-010
2.80592e-008
-1.82702e-009
2.2887e-007
-1.5605e-008
1.85308e-006
-1.0875e-007
1.25915e-005
-7.39079e-007
8.18748e-005
-4.22144e-006
0.000452052
-2.21431e-005
0.00229638
-9.65683e-005
0.00992503
-0.00037269
0.0375313
-0.00172486
0.114505
-0.00529199
0.288866
-0.0125312
0.604794
-0.0219219
1.05489
-0.0315886
1.54216
-0.0285184
1.95566
-0.0112811
2.23241
-0.00556585
2.38085
0.00457881
2.51741
0.0223418
2.61691
-0.060618
2.63878
-0.0813129
2.62398
-0.0986301
2.4356
-0.101429
2.0147
-0.0394649
1.81205
-0.0918513
1.71997
-0.0306215
1.69629
-0.0381384
1.69055
-0.0262313
1.67393
-0.00961918
1.60224
0.0640906
1.27006
0.167654
0.261447
0.0431533
0.0449239
0.127955
0.00570531
0.0134606
0.000652813
0.000658152
9.83085e-005
0.000182578
1.49063e-005
1.75302e-005
2.20281e-006
5.73813e-007
3.46618e-007
9.84918e-007
8.59394e-008
-1.22766e-007
5.26063e-010
6.3664e-008
5.83549e-009
-1.74328e-008
-1.3641e-009
4.49154e-009
5.71721e-010
-1.14852e-009
-1.84532e-010
2.28684e-010
5.91027e-011
-5.79768e-011
-1.81411e-011
1.15608e-011
5.70446e-012
-2.49781e-012
-1.67765e-012
5.47479e-013
3.52573e-013
-1.75485e-013
-8.86791e-015
3.8268e-014
-9.59233e-013
-2.66974e-014
-1.29852e-012
-5.54504e-014
-8.21565e-013
-2.41265e-014
2.3892e-013
7.14862e-014
6.47482e-013
1.62714e-013
-8.26006e-014
1.79597e-012
-1.17861e-012
1.97194e-011
-3.06155e-012
2.40925e-010
-2.86544e-011
2.25164e-009
-3.05906e-010
2.26973e-008
-2.38848e-009
1.81663e-007
-2.03666e-008
1.49484e-006
-1.36237e-007
1.00582e-005
-9.12646e-007
6.64081e-005
-5.06368e-006
0.000366552
-2.59292e-005
0.00189515
-0.000113095
0.00827671
-0.000415165
0.0317648
-0.00213737
0.0981148
-0.00672911
0.251432
-0.017189
0.533779
-0.0305064
0.94651
-0.0470905
1.40692
-0.0469388
1.81186
-0.0213719
2.09558
-0.0141146
2.25962
0.0122168
2.40704
0.0492428
2.50555
-0.0503209
2.52392
-0.0979145
2.50604
-0.138965
2.30015
-0.202811
1.94277
-0.109059
1.69753
-0.117786
1.59541
-0.0478048
1.55325
-0.0613696
1.52515
-0.0190785
1.47319
0.0260031
1.39512
0.127978
1.15607
0.208048
0.258426
-0.0325637
0.0544069
0.174067
0.00745667
0.0206436
0.000985022
0.00155546
0.000151773
0.000340224
2.17113e-005
3.07293e-005
3.36712e-006
2.52905e-006
5.62285e-007
1.27656e-006
1.05297e-007
-7.37081e-008
1.59843e-008
7.81938e-008
4.63168e-009
-1.787e-008
-8.4175e-012
4.74573e-009
3.31062e-010
-1.00463e-009
-5.12614e-011
1.91011e-010
2.73598e-011
-3.11767e-011
-6.42393e-012
3.51298e-012
2.04075e-012
-2.37727e-014
-5.74867e-013
-4.00582e-013
1.15023e-013
1.07525e-013
-1.59928e-013
3.37846e-014
-1.0294e-012
-3.00038e-014
-1.96199e-012
-6.37407e-014
-6.08402e-013
-2.51986e-014
4.71623e-013
7.13613e-014
1.43618e-012
1.48291e-013
-1.19904e-013
1.71632e-012
-9.71667e-013
1.88688e-011
-3.86269e-012
2.3289e-010
-4.02025e-011
2.18151e-009
-4.35243e-010
2.21528e-008
-3.44123e-009
1.77982e-007
-2.9801e-008
1.47162e-006
-2.0302e-007
9.9425e-006
-1.38307e-006
6.58273e-005
-7.8457e-006
0.000364447
-4.09469e-005
0.00188469
-0.000183725
0.00821014
-0.000674265
0.0316527
-0.00341049
0.0979799
-0.0106521
0.251281
-0.0272328
0.53335
-0.0481919
0.944397
-0.0736761
1.39981
-0.0724193
1.79283
-0.0316482
2.06687
-0.00760687
2.21922
0.0310728
2.32147
0.0878938
2.42265
0.00530922
2.44583
-0.0554133
2.42548
-0.116031
2.19959
-0.290728
1.98079
-0.121396
1.7077
-0.130168
1.59042
-0.101207
1.5313
-0.0841321
1.51154
-0.0247523
1.46804
0.0535963
1.38843
0.158482
1.16846
0.184298
0.28335
-0.0078534
0.0630363
0.234534
0.00907223
0.0289046
0.00125486
0.00302481
0.000197148
0.000562671
2.86328e-005
5.66787e-005
4.43207e-006
6.03136e-006
7.22987e-007
1.7551e-006
1.35424e-007
1.83397e-008
1.79283e-008
8.88328e-008
5.86555e-009
-1.49456e-008
-2.73251e-010
5.46068e-009
3.95628e-010
-1.33e-009
-9.55208e-011
2.83013e-010
3.78058e-011
-6.09133e-011
-1.08834e-011
1.21198e-011
3.75096e-012
-1.81131e-012
-1.05488e-012
2.13177e-013
2.30372e-013
6.41154e-015
1.14075e-014
3.37716e-014
-3.42837e-013
-2.57416e-014
-2.7045e-012
-4.65426e-014
-5.24913e-013
-1.60011e-014
2.93987e-013
6.39055e-014
8.81961e-013
1.31589e-013
4.63629e-013
1.46246e-012
-1.40243e-012
1.54231e-011
-3.95239e-012
1.94918e-010
-4.2343e-011
1.76771e-009
-4.69072e-010
1.83308e-008
-3.62763e-009
1.43885e-007
-3.14718e-008
1.21168e-006
-2.11702e-007
8.07816e-006
-1.433e-006
5.43489e-005
-8.10683e-006
0.000300081
-4.1875e-005
0.00157875
-0.00019148
0.0069442
-0.00068741
0.0271574
-0.00365462
0.0850165
-0.0116025
0.221111
-0.0310509
0.475327
-0.054882
0.854057
-0.0897666
1.28444
-0.0903339
1.66813
-0.0487759
1.9519
-0.00685215
2.12759
0.0277476
2.20953
0.10658
2.31004
0.040539
2.34984
-0.00749526
2.32953
-0.0529775
2.10623
-0.33268
1.8468
-0.0813586
1.59184
-0.11995
1.45561
-0.107463
1.39294
-0.0896603
1.37043
-0.021002
1.35283
0.0688396
1.29016
0.190859
1.1025
0.162087
0.301915
-0.0905219
0.0738846
0.294224
0.0108804
0.0357032
0.00160448
0.00490243
0.000257083
0.000802026
3.74293e-005
9.13693e-005
5.93276e-006
1.1363e-005
9.97541e-007
2.30631e-006
1.67878e-007
1.44902e-007
3.12576e-008
8.77282e-008
6.07302e-009
-5.15773e-009
9.45717e-010
4.50573e-009
2.85439e-010
-7.38542e-010
8.75963e-012
1.93713e-010
1.69803e-011
-2.541e-011
-1.4765e-012
3.33271e-012
8.38106e-013
5.74235e-013
-1.50865e-013
-5.05845e-013
5.4806e-014
2.60236e-013
-3.17524e-014
3.0303e-014
-8.94396e-013
-2.47207e-014
-2.21068e-012
-5.6428e-014
-1.42553e-012
-2.55195e-014
4.22773e-013
6.04568e-014
3.20632e-013
1.19562e-013
-2.75335e-014
1.3715e-012
-1.88205e-012
1.44068e-011
-4.39027e-012
1.85262e-010
-4.77272e-011
1.67784e-009
-5.36755e-010
1.76145e-008
-4.17717e-009
1.38607e-007
-3.67084e-008
1.1765e-006
-2.50021e-007
7.8757e-006
-1.71193e-006
5.32299e-005
-9.8511e-006
0.000294912
-5.14746e-005
0.00155295
-0.000240583
0.00681919
-0.000865312
0.0267759
-0.00455702
0.0840541
-0.0144461
0.219026
-0.0390125
0.471091
-0.068946
0.846406
-0.114627
1.27138
-0.11665
1.64552
-0.0669391
1.91459
-0.00589394
2.07987
0.0227588
2.15848
0.114984
2.24926
0.0448882
2.28043
0.0161272
2.24997
0.00964944
2.03195
-0.328112
1.78446
-0.0385947
1.54981
-0.110568
1.43058
-0.126782
1.37926
-0.111953
1.34729
-0.0182915
1.32124
0.0854595
1.28295
0.201561
1.07904
0.17299
0.322174
-0.142172
0.0825483
0.352091
0.0124958
0.0427951
0.00195966
0.00706305
0.000313744
0.0010689
4.72306e-005
0.000140243
7.63162e-006
1.66048e-005
1.24746e-006
3.55964e-006
2.22819e-007
2.8366e-007
3.59762e-008
1.01916e-007
8.23675e-009
2.32043e-009
7.55583e-010
4.50347e-009
4.02711e-010
-6.24092e-010
-3.09528e-011
2.46545e-010
2.85466e-011
-4.38538e-011
-6.19327e-012
1.06311e-011
2.74626e-012
-7.40255e-013
-6.69655e-013
2.7367e-014
1.79005e-013
3.60822e-014
-7.21645e-015
2.88233e-014
-6.21725e-015
-2.34396e-014
-2.08189e-012
-4.51878e-014
-1.90514e-012
-1.8258e-014
4.52971e-013
5.40384e-014
7.58504e-013
1.00602e-013
-7.39853e-013
1.19282e-012
-2.09432e-012
1.19612e-011
-4.56613e-012
1.58669e-010
-4.76659e-011
1.38437e-009
-5.42163e-010
1.49136e-008
-4.16598e-009
1.14161e-007
-3.66405e-008
9.89615e-007
-2.48814e-007
6.51547e-006
-1.69184e-006
4.47869e-005
-9.79882e-006
0.000246912
-5.07644e-005
0.00132149
-0.000242517
0.00585272
-0.000864329
0.0232968
-0.00471297
0.0738829
-0.0150419
0.194894
-0.042005
0.423991
-0.0746933
0.77148
-0.129051
1.17305
-0.134187
1.53804
-0.0824612
1.81039
-0.0088109
1.97983
0.00853677
2.06904
0.0998835
2.16878
0.0377043
2.20478
-0.00229519
2.18059
0.0418939
1.97488
-0.289181
1.72126
0.0161892
1.48491
-0.0976237
1.34822
-0.133334
1.28471
-0.119225
1.27178
-0.0314166
1.25881
0.0845875
1.21488
0.208993
1.04759
0.160946
0.345761
-0.197229
0.0927243
0.402736
0.0143332
0.050269
0.00234799
0.00945788
0.00037779
0.00138146
5.85109e-005
0.000195261
9.40048e-006
2.30883e-005
1.63164e-006
5.24746e-006
2.71357e-007
4.46441e-007
4.9292e-008
1.29753e-007
9.26988e-009
9.84086e-009
1.7525e-009
4.43346e-009
3.66654e-010
-3.8525e-011
6.23813e-011
1.5945e-010
1.57322e-011
-1.45342e-013
2.20096e-012
2.73052e-012
3.84671e-013
1.67553e-012
7.44274e-014
-5.28202e-013
8.18789e-015
1.80356e-013
-9.19959e-014
2.78458e-014
-2.23821e-013
-2.15591e-014
-2.17426e-012
-5.22334e-014
-2.66542e-012
-2.24777e-014
3.28626e-013
5.57714e-014
7.98472e-013
9.00686e-014
-5.62217e-013
1.10305e-012
-2.41585e-012
1.09454e-011
-4.77929e-012
1.4896e-010
-4.97051e-011
1.29038e-009
-5.71247e-010
1.41472e-008
-4.40601e-009
1.08248e-007
-3.91155e-008
9.48829e-007
-2.68707e-007
6.26628e-006
-1.83895e-006
4.33507e-005
-1.0827e-005
0.000239812
-5.64774e-005
0.00128596
-0.000274944
0.00568971
-0.000983003
0.0227366
-0.00534237
0.072348
-0.0170229
0.191402
-0.04794
0.41697
-0.0855961
0.759648
-0.148723
1.15555
-0.156013
1.51213
-0.0991911
1.77047
-0.00563744
1.92937
0.00747122
2.0134
0.0980581
2.10491
0.0521822
2.13794
0.00153076
2.12059
0.0646563
1.94689
-0.248242
1.70433
0.0488535
1.48065
-0.0998256
1.35441
-0.155494
1.29793
-0.145819
1.26385
-0.0345303
1.24216
0.0865024
1.21145
0.203125
1.03515
0.180895
0.428521
-0.204433
0.101486
0.426839
0.016102
0.0585892
0.00275016
0.0120274
0.00044324
0.00174729
7.02261e-005
0.000253032
1.14663e-005
3.22719e-005
2.00646e-006
7.1948e-006
3.39203e-007
6.01118e-007
5.90523e-008
1.86933e-007
1.22906e-008
1.6106e-008
1.87157e-009
5.45194e-009
5.22087e-010
2.47787e-010
3.12697e-011
2.16434e-010
2.93559e-011
-1.35153e-011
-2.67694e-012
9.10851e-012
2.34567e-012
2.08236e-013
-4.04695e-013
-7.20257e-015
1.41963e-013
4.86278e-014
-4.68792e-014
2.3025e-014
2.93099e-014
-2.11922e-014
-1.66356e-012
-3.94997e-014
-2.27907e-012
-1.46593e-014
8.70415e-013
4.65782e-014
7.72715e-013
7.97062e-014
2.57572e-014
9.8041e-013
-2.30127e-012
9.1921e-012
-5.40545e-012
1.302e-010
-4.81766e-011
1.08061e-009
-5.612e-010
1.22301e-008
-4.29733e-009
9.06529e-008
-3.80705e-008
8.14225e-007
-2.62669e-007
5.27286e-006
-1.77964e-006
3.7139e-005
-1.0616e-005
0.000204061
-5.48876e-005
0.00111091
-0.000272807
0.00495128
-0.000977478
0.0200436
-0.00541977
0.0643746
-0.0173705
0.172159
-0.0501074
0.378838
-0.090871
0.697818
-0.160336
1.07226
-0.172272
1.4184
-0.118873
1.67882
-0.00949006
1.84158
0.00396869
1.93028
0.107567
2.02724
0.0791456
2.06409
0.0161711
2.05482
0.0854301
1.89344
-0.211905
1.63942
0.0548203
1.41955
-0.10028
1.29476
-0.169278
1.22823
-0.145635
1.21145
-0.043755
1.19651
0.0880034
1.16226
0.205955
1.02687
0.177284
0.596931
-0.186201
0.11078
0.423784
0.0180976
0.0692056
0.00317539
0.0147207
0.000513548
0.00218914
8.28972e-005
0.000307264
1.37074e-005
4.57586e-005
2.45878e-006
9.01169e-006
4.0105e-007
8.66975e-007
7.77265e-008
2.48922e-007
1.39864e-008
2.471e-008
2.68833e-009
6.53123e-009
5.37099e-010
8.18894e-010
1.10448e-010
1.87571e-010
1.95233e-011
3.15055e-011
4.87577e-012
3.11282e-012
4.51565e-013
2.68723e-012
2.08407e-013
-3.38715e-013
2.43729e-016
1.83312e-013
-8.75133e-014
2.54267e-014
4.06786e-013
-1.85676e-014
-1.14397e-012
-4.34435e-014
-2.13607e-012
-1.66664e-014
1.64047e-012
4.8796e-014
1.46017e-012
7.47891e-014
2.21156e-013
8.99215e-013
-2.55351e-012
8.26619e-012
-6.16573e-012
1.21328e-010
-4.82689e-011
9.92102e-010
-5.66728e-010
1.1495e-008
-4.35803e-009
8.47965e-008
-3.87766e-008
7.72776e-007
-2.71233e-007
5.01006e-006
-1.83872e-006
3.55803e-005
-1.11719e-005
0.000196068
-5.79252e-005
0.00107063
-0.000292652
0.0047703
-0.00105742
0.0193875
-0.00581691
0.0625031
-0.0187119
0.167763
-0.0543772
0.369972
-0.099737
0.682995
-0.17658
1.05117
-0.192435
1.39017
-0.138607
1.63913
-0.0130072
1.79256
-0.00324024
1.87773
0.114834
1.96956
0.0995834
2.00285
0.0237177
1.99818
0.0943489
1.8536
-0.17771
1.6014
0.0442478
1.39533
-0.102421
1.281
-0.186164
1.22302
-0.152926
1.19171
-0.0377445
1.17508
0.0909326
1.14686
0.202271
1.02248
0.188941
0.643828
-0.140879
0.118984
0.3999
0.0202887
0.0825608
0.00361089
0.0175898
0.000587928
0.00268635
9.55135e-005
0.000360216
1.63281e-005
6.37904e-005
2.88151e-006
1.05931e-005
4.87e-007
1.27876e-006
9.21081e-008
3.16957e-007
1.7534e-008
3.41548e-008
3.0732e-009
8.9511e-009
7.44389e-010
1.16617e-009
1.03295e-010
2.77353e-010
3.71884e-011
3.67011e-011
1.10949e-012
1.14832e-011
2.34336e-012
1.23289e-012
-1.7133e-013
1.4147e-013
1.33e-013
8.39051e-014
-5.59969e-014
2.09112e-014
1.00719e-012
-1.97394e-014
-1.51967e-012
-3.28028e-014
-1.54454e-012
-8.50275e-015
2.22844e-012
4.30662e-014
6.47482e-013
6.04196e-014
2.24709e-013
8.08557e-013
-2.67963e-012
6.98755e-012
-5.92859e-012
1.07895e-010
-4.65823e-011
8.40115e-010
-5.48283e-010
1.01186e-008
-4.21131e-009
7.20081e-008
-3.72068e-008
6.7501e-007
-2.6332e-007
4.27965e-006
-1.75815e-006
3.0984e-005
-1.08957e-005
0.000169325
-5.58575e-005
0.000937698
-0.000287774
0.00420314
-0.00105221
0.0172935
-0.0057939
0.0562243
-0.0188967
0.152375
-0.0558645
0.338986
-0.104637
0.631844
-0.187003
0.980702
-0.208189
1.30808
-0.156761
1.55731
-0.0205231
1.71594
-0.0136071
1.80206
0.110135
1.89506
0.099821
1.93419
0.00634589
1.93439
0.0926453
1.79451
-0.129739
1.54153
0.0174793
1.34235
-0.0931719
1.21855
-0.183361
1.15543
-0.148974
1.14491
-0.0506943
1.13275
0.0872549
1.1054
0.197888
1.01027
0.189459
0.670254
-0.0941265
0.127159
0.363876
0.0227943
0.0990294
0.00406681
0.0206848
0.000665254
0.0032146
0.00010886
0.000418393
1.91712e-005
8.56987e-005
3.34511e-006
1.19068e-005
5.75444e-007
1.87064e-006
1.12312e-007
3.77594e-007
2.01874e-008
5.01842e-008
4.07472e-009
1.10765e-008
7.97024e-010
1.78254e-009
1.63502e-010
3.31867e-010
3.14639e-011
6.62762e-011
7.4552e-012
9.14381e-012
9.70023e-013
3.4221e-012
3.35161e-013
-8.93868e-014
1.78954e-014
2.02574e-013
-9.71029e-014
2.16624e-014
1.31006e-012
-1.81096e-014
-1.66445e-012
-3.70754e-014
-1.98153e-012
-1.62041e-014
2.53753e-012
3.91787e-014
4.37872e-013
5.83726e-014
3.03757e-013
7.46933e-013
-2.58638e-012
6.19537e-012
-5.46407e-012
1.0022e-010
-4.52953e-011
7.61666e-010
-5.39436e-010
9.45679e-009
-4.17735e-009
6.6604e-008
-3.68116e-008
6.35939e-007
-2.65313e-007
4.02512e-006
-1.75944e-006
2.94399e-005
-1.11532e-005
0.000161201
-5.70258e-005
0.0008964
-0.000298479
0.00401944
-0.00110574
0.0166037
-0.00598984
0.054202
-0.0197648
0.147499
-0.0588023
0.329062
-0.111871
0.615163
-0.200906
0.95731
-0.227933
1.27848
-0.175786
1.51793
-0.0207996
1.6683
-0.0109304
1.75173
0.110486
1.8409
0.113647
1.87687
0.012933
1.87865
0.0968486
1.74286
-0.0763001
1.49616
-0.0225642
1.30564
-0.0689108
1.19153
-0.176441
1.13234
-0.144273
1.115
-0.0653579
1.1084
0.0731189
1.08431
0.185318
0.994491
0.19116
0.684798
-0.043335
0.135095
0.324532
0.0255505
0.118127
0.00453394
0.0240683
0.000744983
0.00374069
0.000122635
0.000491099
2.22794e-005
0.000109551
3.78082e-006
1.32846e-005
6.86204e-007
2.59016e-006
1.28807e-007
4.41826e-007
2.46117e-008
6.86261e-008
4.64286e-009
1.41625e-008
1.02989e-009
2.30548e-009
1.78641e-010
4.74736e-010
4.84411e-011
8.9342e-011
5.93525e-012
1.71514e-011
2.60011e-012
3.31415e-012
7.00369e-014
4.9856e-013
1.36321e-013
1.07067e-013
-2.0553e-014
1.70038e-014
9.21929e-013
-1.92181e-014
-2.27107e-012
-2.81624e-014
-1.8634e-012
-8.42382e-015
3.25606e-012
3.70641e-014
6.71463e-013
4.81126e-014
6.23501e-013
6.81409e-013
-2.28262e-012
5.24988e-012
-5.47118e-012
9.04313e-011
-4.35207e-011
6.49789e-010
-5.15702e-010
8.45274e-009
-4.02514e-009
5.71878e-008
-3.49613e-008
5.64023e-007
-2.57167e-007
3.48256e-006
-1.66767e-006
2.60069e-005
-1.08653e-005
0.00014103
-5.46439e-005
0.000794776
-0.000292078
0.00358032
-0.00109929
0.0149629
-0.00588025
0.0492194
-0.0198238
0.135112
-0.0597161
0.303728
-0.11599
0.572618
-0.209367
0.89761
-0.242802
1.20698
-0.19376
1.44511
-0.0286334
1.59934
-0.0178012
1.68247
0.113911
1.77306
0.145077
1.81471
0.0267559
1.81898
0.0974195
1.68797
-0.0303772
1.44252
-0.0673181
1.25465
-0.0449784
1.13075
-0.153814
1.07957
-0.137141
1.06846
-0.0934506
1.06495
0.0486854
1.04742
0.165501
0.973573
0.183769
0.693362
0.000338481
0.143168
0.285275
0.0285097
0.139502
0.0050181
0.0277503
0.000825677
0.00424788
0.000137593
0.000586149
2.54554e-005
0.000133772
4.2632e-006
1.49738e-005
7.98935e-007
3.42645e-006
1.49737e-007
5.05212e-007
2.83156e-008
9.29391e-008
5.72063e-009
1.69529e-008
1.13701e-009
3.16157e-009
2.39624e-010
5.69402e-010
4.83493e-011
1.28785e-010
1.08078e-011
1.96663e-011
1.89618e-012
5.35028e-012
5.03567e-013
4.82864e-013
6.38309e-014
2.30344e-013
-1.83326e-014
1.84332e-014
1.2923e-012
-1.78043e-014
-2.22133e-012
-2.95024e-014
-1.39533e-012
-1.07579e-014
3.56604e-012
3.47942e-014
6.81233e-013
4.67898e-014
9.32587e-014
6.30916e-013
-2.30926e-012
4.58604e-012
-4.99689e-012
8.40051e-011
-4.23217e-011
5.82818e-010
-4.9865e-010
7.87958e-009
-3.94816e-009
5.24167e-008
-3.38944e-008
5.28865e-007
-2.55716e-007
3.24867e-006
-1.6317e-006
2.45606e-005
-1.09437e-005
0.000133265
-5.44824e-005
0.000754947
-0.000296742
0.00340373
-0.0011325
0.0142815
-0.00592846
0.04718
-0.020344
0.130089
-0.0616307
0.293401
-0.121548
0.555053
-0.219345
0.872845
-0.258592
1.17653
-0.213288
1.40652
-0.031038
1.55403
-0.0206905
1.63445
0.115881
1.7223
0.1755
1.76099
0.0422816
1.76693
0.0841725
1.64632
0.00646024
1.40749
-0.105959
1.22053
-0.0251905
1.1078
-0.146299
1.05266
-0.127673
1.04104
-0.117515
1.0367
0.0295827
1.02148
0.152066
0.954293
0.184535
0.699114
0.0252972
0.151192
0.245056
0.0316089
0.162993
0.00551278
0.0317072
0.000907453
0.0047316
0.000153571
0.000709407
2.86907e-005
0.000156671
4.74805e-006
1.73232e-005
9.26268e-007
4.30756e-006
1.68141e-007
5.83487e-007
3.34793e-008
1.19358e-007
6.44678e-009
2.07218e-008
1.3953e-009
3.96373e-009
2.6146e-010
7.56974e-010
6.4722e-011
1.54613e-010
1.10624e-011
2.89903e-011
3.19289e-012
6.45628e-012
3.93882e-013
1.04583e-012
1.5857e-013
2.08791e-013
2.67009e-014
1.43149e-014
1.26121e-012
-1.54009e-014
-1.86073e-012
-2.08228e-014
-1.26388e-012
-6.83741e-015
3.01537e-012
3.19232e-014
1.18927e-012
3.44577e-014
-2.5846e-013
5.82324e-013
-1.95222e-012
3.87566e-012
-4.0874e-012
7.67249e-011
-4.05436e-011
4.99173e-010
-4.72908e-010
7.13369e-009
-3.80905e-009
4.53842e-008
-3.19195e-008
4.75142e-007
-2.48249e-007
2.84075e-006
-1.53457e-006
2.19655e-005
-1.0671e-005
0.000117886
-5.18801e-005
0.000676568
-0.000290007
0.00306041
-0.00112162
0.0129824
-0.00576734
0.0431879
-0.0203093
0.120035
-0.0621833
0.272564
-0.125043
0.519517
-0.22555
0.822059
-0.270438
1.11415
-0.230665
1.34108
-0.036231
1.49135
-0.0306258
1.57188
0.112743
1.65924
0.194816
1.70094
0.0505751
1.70957
0.0736907
1.60386
0.0139995
1.36824
-0.135565
1.18897
-0.0196593
1.0693
-0.135608
1.02046
-0.129603
1.00367
-0.126069
1.00259
0.0180353
0.991275
0.14824
0.934134
0.191213
0.705407
0.0483063
0.159316
0.201418
0.0348181
0.188549
0.0060191
0.0358742
0.000990299
0.00519712
0.000170988
0.000864336
3.18566e-005
0.000177006
5.29381e-006
2.06012e-005
1.05192e-006
5.20506e-006
1.90624e-007
6.77285e-007
3.8097e-008
1.50102e-007
7.59422e-009
2.46075e-008
1.55794e-009
5.0764e-009
3.29443e-010
9.21289e-010
6.86661e-011
2.02349e-010
1.5228e-011
3.54575e-011
3.06709e-012
8.79549e-012
7.15194e-013
1.31231e-012
1.28057e-013
3.27002e-013
4.00791e-014
1.66863e-014
1.56319e-012
-1.54512e-014
-2.19025e-012
-2.53851e-014
-1.57652e-012
-1.02513e-014
3.55271e-012
2.98008e-014
1.3296e-012
3.74154e-014
-6.46594e-013
5.4752e-013
-1.82876e-012
3.33708e-012
-3.79963e-012
7.14401e-011
-3.91331e-011
4.43347e-010
-4.51551e-010
6.64875e-009
-3.72142e-009
4.12912e-008
-3.04594e-008
4.44426e-007
-2.45299e-007
2.63313e-006
-1.47513e-006
2.06588e-005
-1.06467e-005
0.000110749
-5.07963e-005
0.000639652
-0.000291077
0.00289643
-0.00113711
0.0123352
-0.00572288
0.0412178
-0.0205947
0.115087
-0.0634852
0.262287
-0.12978
0.501803
-0.233535
0.796774
-0.283756
1.08341
-0.249201
1.30336
-0.0390496
1.44723
-0.0377139
1.52585
0.112759
1.61114
0.21168
1.65076
0.0585331
1.65876
0.0540906
1.5653
0.0142722
1.33591
-0.175538
1.16054
-0.0117199
1.05228
-0.134711
0.998605
-0.129568
0.979361
-0.123991
0.975031
0.0195066
0.967667
0.150301
0.916236
0.204848
0.70786
0.0757253
0.167289
0.154918
0.038091
0.216056
0.00652941
0.0401342
0.0010744
0.00567156
0.000189548
0.00104993
3.49347e-005
0.000194174
5.86857e-006
2.50391e-005
1.18341e-006
6.05748e-006
2.11847e-007
8.00093e-007
4.37547e-008
1.81735e-007
8.48521e-009
2.9626e-008
1.83783e-009
6.20261e-009
3.64197e-010
1.15778e-009
8.5111e-011
2.45706e-010
1.61655e-011
4.70222e-011
4.16004e-012
1.04615e-011
7.33114e-013
1.90102e-012
2.01042e-013
4.4735e-013
1.21278e-013
1.1771e-014
1.87939e-012
-1.25212e-014
-1.75326e-012
-1.64304e-014
-1.07114e-012
-5.6101e-015
3.04556e-012
2.72638e-014
1.29852e-012
2.61596e-014
-6.68798e-013
5.04556e-013
-2.13962e-012
2.79167e-012
-4.17089e-012
6.59167e-011
-3.75087e-011
3.79947e-010
-4.25149e-010
6.08394e-009
-3.60433e-009
3.59653e-008
-2.84378e-008
4.03612e-007
-2.38925e-007
2.32244e-006
-1.37603e-006
1.86699e-005
-1.04051e-005
9.88832e-005
-4.80497e-005
0.000578567
-0.000284767
0.00262515
-0.00111993
0.0112939
-0.00554433
0.0379816
-0.0204919
0.106827
-0.0637946
0.244976
-0.132866
0.471846
-0.239117
0.753376
-0.294911
1.02894
-0.266131
1.24463
-0.0494869
1.38985
-0.0533661
1.46914
0.110611
1.55317
0.223009
1.59497
0.0590007
1.60567
0.0353081
1.52434
0.00592195
1.30063
-0.219788
1.13394
-0.00826167
1.01653
-0.122679
0.966172
-0.132306
0.948494
-0.119873
0.947088
0.0209154
0.94135
0.154165
0.897268
0.217732
0.706217
0.103941
0.17519
0.11002
0.041412
0.245502
0.00704367
0.0443299
0.00116126
0.00620642
0.000209365
0.00125874
3.78971e-005
0.000209035
6.5163e-006
3.06161e-005
1.30986e-006
6.86262e-006
2.36962e-007
9.51655e-007
4.89675e-008
2.15528e-007
9.71744e-009
3.52141e-008
2.04966e-009
7.56197e-009
4.34193e-010
1.39996e-009
9.31577e-011
3.05369e-010
2.05149e-011
5.79189e-011
4.36795e-012
1.33044e-011
9.96784e-013
2.38484e-012
2.09386e-013
6.114e-013
1.3077e-013
1.42273e-014
2.07478e-012
-1.23807e-014
-1.56675e-012
-2.15748e-014
-1.20082e-012
-1.06642e-014
2.63967e-012
2.51986e-014
1.21414e-012
2.75049e-014
-8.71303e-013
4.74101e-013
-1.74616e-012
2.3603e-012
-4.04743e-012
6.16072e-011
-3.62927e-011
3.34167e-010
-4.00866e-010
5.67905e-009
-3.52326e-009
3.25208e-008
-2.67634e-008
3.7727e-007
-2.35662e-007
2.14233e-006
-1.30177e-006
1.75171e-005
-1.03347e-005
9.24967e-005
-4.62851e-005
0.000545245
-0.000284012
0.00247631
-0.0011204
0.0106942
-0.00545131
0.036133
-0.0205911
0.1021
-0.0644816
0.235064
-0.136298
0.454454
-0.245585
0.728233
-0.306815
0.99817
-0.283779
1.20777
-0.0558949
1.34744
-0.0644498
1.42514
0.108173
1.50741
0.231311
1.54859
0.060441
1.55855
0.0249826
1.48827
0.00270355
1.27154
-0.255235
1.10601
-0.000992771
0.996689
-0.120762
0.942093
-0.132277
0.923373
-0.113583
0.922878
0.0225592
0.918583
0.157598
0.878868
0.231997
0.701225
0.13412
0.182921
0.0692777
0.044725
0.276936
0.00755336
0.0482639
0.00125162
0.00686743
0.000229698
0.00147827
4.07754e-005
0.000223402
7.19613e-006
3.714e-005
1.43637e-006
7.62389e-006
2.61646e-007
1.1352e-006
5.47925e-008
2.49486e-007
1.07688e-008
4.1948e-008
2.34248e-009
8.95714e-009
4.80723e-010
1.70035e-009
1.09681e-010
3.64899e-010
2.24256e-011
7.24832e-011
5.39235e-012
1.59532e-011
1.0614e-012
3.13535e-012
2.70161e-013
7.24198e-013
1.57874e-013
9.49327e-015
2.2542e-012
-1.04569e-014
-1.6751e-012
-1.44103e-014
-1.01252e-012
-7.89212e-015
2.60059e-012
2.19798e-014
1.05693e-012
2.01592e-014
-8.52651e-013
4.43721e-013
-1.6982e-012
1.94868e-012
-3.6291e-012
5.73366e-011
-3.5052e-011
2.85625e-010
-3.74613e-010
5.24303e-009
-3.4313e-009
2.84358e-008
-2.47608e-008
3.45728e-007
-2.30576e-007
1.90271e-006
-1.20148e-006
1.59708e-005
-1.01288e-005
8.32274e-005
-4.33841e-005
0.000497081
-0.000278706
0.00225957
-0.00109685
0.00984851
-0.00527648
0.0334824
-0.0204079
0.0952505
-0.0643628
0.220645
-0.138046
0.428964
-0.250054
0.690882
-0.316848
0.950521
-0.300356
1.15513
-0.0699256
1.29493
-0.0788531
1.37294
0.10274
1.45387
0.240432
1.49791
0.059561
1.51036
0.0179728
1.44868
0.00900162
1.2393
-0.27895
1.08094
-0.00847538
0.962608
-0.114333
0.91065
-0.134966
0.895412
-0.107381
0.897254
0.0207221
0.893965
0.159867
0.858593
0.245071
0.693863
0.162269
0.190538
0.0333304
0.0480202
0.310358
0.00805814
0.0517783
0.00134798
0.00771565
0.000250363
0.00169501
4.36596e-005
0.000239718
7.93038e-006
4.42761e-005
1.55941e-006
8.39274e-006
2.89664e-007
1.34364e-006
6.03015e-008
2.85424e-007
1.20876e-008
4.93768e-008
2.5911e-009
1.05412e-008
5.52761e-010
2.01826e-009
1.2095e-010
4.37927e-010
2.67253e-011
8.73449e-011
5.87694e-012
1.95394e-011
1.32992e-012
3.85658e-012
2.89595e-013
8.96172e-013
1.61315e-013
9.88445e-015
1.84741e-012
-1.05098e-014
-1.6005e-012
-1.79188e-014
-1.52767e-012
-1.25898e-014
2.80487e-012
2.01774e-014
1.28697e-012
2.27561e-014
-5.00044e-013
4.19321e-013
-1.71951e-012
1.64356e-012
-3.57758e-012
5.38207e-011
-3.37694e-011
2.48577e-010
-3.50076e-010
4.90688e-009
-3.36669e-009
2.55763e-008
-2.29872e-008
3.23389e-007
-2.27608e-007
1.74904e-006
-1.11921e-006
1.49695e-005
-1.00362e-005
7.76139e-005
-4.12237e-005
0.000467532
-0.000277449
0.00212659
-0.00108495
0.00930197
-0.00516407
0.0317861
-0.0203539
0.0908474
-0.0644616
0.211367
-0.139845
0.412274
-0.254906
0.666395
-0.32722
0.92016
-0.317347
1.11947
-0.0794096
1.25436
-0.0881742
1.33053
0.0984753
1.40958
0.256029
1.45331
0.0746245
1.46535
0.0257764
1.40944
0.0201901
1.20745
-0.300517
1.04974
-0.015225
0.938896
-0.116406
0.886122
-0.135689
0.870331
-0.0963425
0.873152
0.0179101
0.870233
0.162008
0.837652
0.258002
0.68453
0.188589
0.197862
0.00333338
0.0512376
0.345138
0.00854901
0.0548187
0.00145036
0.00879071
0.000270458
0.0018981
4.65853e-005
0.000260007
8.66714e-006
5.1713e-005
1.68238e-006
9.20153e-006
3.17113e-007
1.57402e-006
6.61553e-008
3.22638e-007
1.32726e-008
5.77781e-008
2.89125e-009
1.21925e-008
6.08716e-010
2.38742e-009
1.37704e-010
5.13337e-010
2.94073e-011
1.05373e-010
6.87928e-012
2.31525e-011
1.45418e-012
4.79267e-012
3.46341e-013
1.06082e-012
1.81771e-013
7.12624e-015
1.47793e-012
-1.03077e-014
-1.17772e-012
-1.29124e-014
-1.42997e-012
-6.92502e-015
2.64322e-012
1.98097e-014
1.51701e-012
1.54711e-014
-6.72351e-013
3.94043e-013
-1.91669e-012
1.32718e-012
-2.68052e-012
5.04561e-011
-3.23883e-011
2.1144e-010
-3.24003e-010
4.56413e-009
-3.3013e-009
2.24107e-008
-2.10018e-008
2.98585e-007
-2.23768e-007
1.56204e-006
-1.02203e-006
1.37484e-005
-9.8673e-006
7.02826e-005
-3.83977e-005
0.000429093
-0.000273447
0.00195155
-0.00105551
0.00860627
-0.00500609
0.0295932
-0.0201075
0.0851129
-0.0640962
0.199161
-0.140738
0.390382
-0.258269
0.633973
-0.336205
0.878308
-0.333526
1.07234
-0.0929049
1.20635
-0.0980933
1.28264
0.0916107
1.36011
0.275195
1.40517
0.0938566
1.41827
0.0361588
1.3674
0.0278511
1.17177
-0.32391
1.02098
-0.0263997
0.906438
-0.111864
0.856596
-0.135796
0.844817
-0.0859719
0.847361
0.0150842
0.845595
0.163136
0.815795
0.269901
0.673393
0.213898
0.204963
-0.0385012
0.0543666
0.380476
0.00903271
0.0574822
0.00156067
0.0101056
0.000290066
0.00208131
4.96731e-005
0.000285904
9.42597e-006
5.91863e-005
1.80631e-006
1.00994e-005
3.46954e-007
1.81983e-006
7.18853e-008
3.62873e-007
1.46603e-008
6.68487e-008
3.16765e-009
1.40311e-008
6.83111e-010
2.78187e-009
1.51474e-010
6.01364e-010
3.3748e-011
1.24357e-010
7.57196e-012
2.76168e-011
1.71835e-012
5.75076e-012
3.79833e-013
1.2883e-012
1.9526e-013
8.10896e-015
1.38556e-012
-1.00362e-014
-1.33937e-012
-1.54191e-014
-1.44595e-012
-1.01264e-014
2.13518e-012
1.79067e-014
1.37668e-012
1.53193e-014
-4.01457e-013
3.78402e-013
-1.70619e-012
1.0503e-012
-1.59517e-012
4.75774e-011
-3.10649e-011
1.83751e-010
-3.02634e-010
4.28537e-009
-3.25277e-009
2.00592e-008
-1.92146e-008
2.79742e-007
-2.2153e-007
1.43222e-006
-9.35233e-007
1.28861e-005
-9.78849e-006
6.54096e-005
-3.60185e-005
0.000403197
-0.000272197
0.00183404
-0.00103396
0.00811381
-0.00489516
0.0280572
-0.0199503
0.0810653
-0.0639903
0.190502
-0.142043
0.374622
-0.261741
0.610519
-0.34508
0.848845
-0.350036
1.03808
-0.102782
1.16777
-0.106443
1.24232
0.0868332
1.31774
0.295907
1.36144
0.115502
1.37332
0.0379333
1.32605
0.0250033
1.13683
-0.347309
0.987627
-0.0354871
0.881589
-0.112639
0.832127
-0.13454
0.820029
-0.0744612
0.822855
0.0133769
0.821986
0.163399
0.794173
0.279645
0.660775
0.236474
0.211753
-0.0725099
0.0573492
0.415238
0.00950499
0.0599577
0.00167646
0.011644
0.000308469
0.00224269
5.28816e-005
0.000318144
1.01571e-005
6.65073e-005
1.93086e-006
1.11056e-005
3.75702e-007
2.07788e-006
7.77831e-008
4.05688e-007
1.59375e-008
7.67158e-008
3.47361e-009
1.59747e-008
7.4619e-010
3.22245e-009
1.68577e-010
6.94233e-010
3.70195e-011
1.46247e-010
8.58232e-012
3.22932e-011
1.8892e-012
6.89548e-012
4.3649e-013
1.53547e-012
2.43555e-013
5.79918e-015
1.58806e-012
-1.02305e-014
-1.1724e-012
-1.29671e-014
-1.01785e-012
-7.42115e-015
2.21689e-012
1.76664e-014
1.42819e-012
1.24449e-014
-7.54952e-013
3.59982e-013
-2.06413e-012
7.76396e-013
-1.65468e-012
4.48544e-011
-3.03499e-011
1.57005e-010
-2.82846e-010
4.01084e-009
-3.20647e-009
1.75889e-008
-1.73201e-008
2.59939e-007