/*--------------------------------*- C++ -*----------------------------------*\
| =========                 |                                                 |
| \\      /  F ield         | OpenFOAM: The Open Source CFD Toolbox           |
|  \\    /   O peration     | Version:  5.x                                   |
|   \\  /    A nd           | Web:      www.OpenFOAM.org                      |
|    \\/     M anipulation  |                                                 |
\*---------------------------------------------------------------------------*/
/*   Windows 32 and 64 bit porting by blueCAPE: http://www.bluecape.com.pt   *\
|  Based on Windows porting (2.0.x v4) by Symscape: http://www.symscape.com   |
\*---------------------------------------------------------------------------*/
FoamFile
{
    version     2.0;
    format      ascii;
    class       volVectorField;
    location    "0.002";
    object      U;
}
// * * * * * * * * * * * * * * * * * * * * * * * * * * * * * * * * * * * * * //

dimensions      [0 1 -1 0 0 0 0];

internalField   nonuniform List<vector> 
10000
(
(2.91447e-012 -1.26628e-012 0)
(1.15152e-012 6.05082e-013 4.3482e-021)
(-3.76006e-012 -6.49758e-012 4.46844e-021)
(-2.97682e-012 8.48859e-013 -1.83681e-020)
(2.63332e-013 3.4342e-012 2.8314e-020)
(7.13427e-012 -6.76508e-013 -5.84316e-034)
(1.35271e-011 -3.37677e-012 -1.99344e-020)
(2.18314e-010 2.61317e-012 0)
(2.38891e-009 6.4671e-011 0)
(2.88299e-008 8.35601e-010 0)
(2.68739e-007 8.84779e-009 -4.44654e-020)
(2.67297e-006 9.02472e-008 1.80091e-027)
(2.11278e-005 7.85392e-007 4.69587e-020)
(0.000171086 6.31481e-006 0)
(0.0011243 4.4577e-005 0)
(0.00727177 0.000280501 0)
(0.0386734 0.00156376 0)
(0.193204 0.00741994 -5.37484e-020)
(0.777979 0.0300571 1.10385e-019)
(2.73637 0.101555 -5.68736e-020)
(7.77738 0.290458 5.66945e-020)
(19.1495 0.682374 -6.0049e-020)
(39.2575 1.35094 0)
(69.052 2.21177 0)
(105.084 3.07983 0)
(141.845 3.67617 0)
(177.106 4.09765 0)
(207.047 4.98401 0)
(233.13 4.2854 -1.02828e-019)
(257.963 3.67558 1.14307e-019)
(282.966 2.88148 0)
(303.5 2.13848 0)
(314.469 1.74633 0)
(323.47 -0.417984 0)
(335.31 0.732393 -1.97976e-019)
(342.883 2.01585 4.29576e-019)
(342.667 3.73102 -4.49905e-019)
(333.75 5.83778 2.32676e-019)
(313.057 9.52733 -2.20974e-019)
(267.035 15.2893 2.33449e-019)
(159.211 12.0905 -1.62912e-019)
(29.3317 7.43636 2.15582e-019)
(3.75328 0.901912 0)
(0.448967 0.0481894 0)
(0.0650587 0.0111935 -1.79853e-019)
(0.00992602 0.00171245 1.84859e-019)
(0.0015882 4.26531e-005 0)
(0.000157957 7.04099e-005 0)
(8.40444e-005 -1.44093e-006 0)
(-9.32389e-006 1.89811e-006 2.06145e-019)
(7.68475e-006 -6.50246e-008 -2.11846e-019)
(-2.03257e-006 -1.29717e-007 0)
(7.96001e-007 2.49709e-008 0)
(-2.41619e-007 -2.4058e-008 2.29912e-019)
(7.83703e-008 5.72374e-009 -2.3627e-019)
(-2.35578e-008 -2.38039e-009 0)
(7.13685e-009 8.3094e-010 0)
(-2.08169e-009 -2.4319e-010 2.56418e-019)
(5.84489e-010 7.52871e-011 -9.22405e-031)
(-2.51775e-010 -4.20556e-011 -2.70796e-019)
(3.14315e-012 1.4878e-012 2.18911e-021)
(1.03951e-012 -1.80412e-012 -2.24965e-021)
(-3.73206e-012 3.17899e-012 0)
(-2.60416e-012 9.46929e-014 0)
(1.26463e-013 7.91914e-013 0)
(6.74166e-012 1.13624e-012 0)
(1.12909e-011 -1.61062e-012 2.06272e-020)
(1.91102e-010 -1.18538e-011 -2.11976e-020)
(2.01483e-009 -1.19198e-010 -2.17838e-020)
(2.49753e-008 -1.39413e-009 2.23862e-020)
(2.2601e-007 -1.3233e-008 0)
(2.30476e-006 -1.25409e-007 -4.7283e-020)
(1.7847e-005 -1.01667e-006 4.85906e-020)
(0.000147824 -7.74201e-006 -4.99342e-020)
(0.000960633 -5.20358e-005 5.13152e-020)
(0.00634096 -0.00031339 0)
(0.033672 -0.00167646 0)
(0.171906 -0.00769851 0)
(0.69929 -0.0327133 0)
(2.5062 -0.110331 0)
(7.20155 -0.311315 0)
(17.9832 -0.711042 0)
(37.3043 -1.37994 0)
(66.4223 -2.17991 0)
(102.166 -2.89533 -5.61219e-020)
(139.293 -3.41385 6.36278e-020)
(175.249 -3.69707 -5.55767e-020)
(206.329 -4.21138 6.20502e-020)
(233.497 -4.76585 0)
(258.714 -4.63278 0)
(283.113 -4.39112 0)
(301.937 -3.87776 0)
(310.004 -2.5861 1.42188e-019)
(314.028 -2.87827 -1.71821e-019)
(319.377 -2.06628 0)
(320.085 -3.79866 0)
(314.269 -4.97351 0)
(303.098 -6.11322 2.26258e-019)
(285.345 -6.55145 -2.32859e-019)
(249.091 -4.39586 0)
(158.497 -6.65065 -1.66994e-019)
(37.882 7.25567 4.04206e-019)
(5.25052 0.826126 -1.863e-019)
(0.721044 0.0513128 0)
(0.10777 0.0147991 -1.86101e-019)
(0.015793 0.00104754 3.82553e-019)
(0.00254204 7.65269e-005 -3.93101e-019)
(0.00033895 7.55626e-005 2.01984e-019)
(9.64013e-005 -8.41459e-006 0)
(9.96574e-007 6.86394e-006 0)
(6.42707e-006 -1.62741e-006 0)
(-1.04267e-006 6.10279e-007 0)
(5.51835e-007 -1.32919e-007 0)
(-1.35523e-007 4.40192e-008 0)
(4.76591e-008 -1.01745e-008 -2.44481e-019)
(-1.27448e-008 3.10115e-009 2.51241e-019)
(3.87458e-009 -9.36906e-010 -2.58189e-019)
(-1.06763e-009 2.55961e-010 2.65329e-019)
(2.8964e-010 -8.09281e-011 0)
(-1.14625e-010 3.2827e-011 0)
(2.77229e-012 -4.68214e-012 2.2651e-021)
(1.2231e-012 -3.29519e-012 2.32774e-021)
(-3.58923e-012 -5.82907e-012 -4.78422e-021)
(-3.0636e-012 7.31468e-013 0)
(1.4512e-013 2.40265e-012 1.0105e-020)
(6.95102e-012 -1.32196e-012 -1.03844e-020)
(1.08673e-011 -3.34589e-012 0)
(1.8739e-010 -1.39232e-012 0)
(1.96542e-009 -9.70019e-012 0)
(2.45993e-008 1.67931e-012 0)
(2.21875e-007 1.91134e-009 0)
(2.27754e-006 2.72623e-008 0)
(1.76119e-005 3.32773e-007 -5.02771e-020)
(0.000146481 3.07291e-006 5.16675e-020)
(0.000951635 2.50906e-005 0)
(0.00629623 0.000172393 -5.45614e-020)
(0.0334354 0.00104008 1.63053e-023)
(0.170754 0.00530508 1.15182e-019)
(0.694687 0.0200207 -5.9232e-020)
(2.49188 0.0688539 0)
(7.16535 0.200019 0)
(17.9022 0.498322 0)
(37.1411 1.01791 6.00192e-020)
(66.1062 1.75805 -6.68211e-020)
(101.577 2.62972 0)
(138.376 3.11398 0)
(173.325 3.77884 0)
(205.006 4.63793 0)
(232.121 3.62909 0)
(255.617 2.86316 0)
(277.483 1.77323 0)
(293.873 -0.168535 0)
(299.461 0.129974 0)
(301.468 -0.457861 0)
(305.581 0.505944 1.90525e-019)
(307.346 1.56639 -2.1157e-019)
(304.69 4.13769 2.24925e-019)
(297.141 7.13361 -2.347e-019)
(283.184 11.3225 2.29532e-019)
(251.177 13.3714 -2.46052e-019)
(163.677 4.73747 0)
(42.7872 11.0969 -1.75437e-019)
(6.11394 1.56754 3.75506e-019)
(0.874331 0.152355 -2.14422e-021)
(0.135886 0.0297927 -1.92902e-019)
(0.0200249 0.00320297 -1.97895e-019)
(0.00329536 0.000318541 2.03378e-019)
(0.000447863 0.00010423 2.08994e-019)
(0.000117884 2.60549e-006 -2.14774e-019)
(3.56902e-006 4.28982e-006 0)
(7.06782e-006 -4.33223e-007 2.26817e-019)
(-9.70717e-007 8.23785e-008 -2.33089e-019)
(5.75305e-007 -1.29881e-008 0)
(-1.44745e-007 -1.33256e-008 -2.46159e-019)
(5.21576e-008 4.36781e-009 2.52966e-019)
(-1.47645e-008 -2.27773e-009 0)
(4.64103e-009 8.65181e-010 2.67151e-019)
(-1.29145e-009 -2.78854e-010 -2.74539e-019)
(3.68137e-010 8.71792e-011 0)
(-1.51584e-010 -4.98904e-011 0)
(2.97771e-012 6.45821e-013 2.34362e-021)
(1.04476e-012 -5.25814e-012 2.40844e-021)
(-3.51084e-012 2.64139e-012 4.95008e-021)
(-2.29686e-012 9.28118e-013 -1.01739e-020)
(3.72712e-014 3.66605e-012 0)
(6.34289e-012 8.76791e-013 0)
(9.37821e-012 -1.70723e-012 0)
(1.67443e-010 -1.22558e-011 0)
(1.68304e-009 -1.33719e-010 0)
(2.17546e-008 -1.54827e-009 2.39663e-020)
(1.89563e-007 -1.39904e-008 -7.75145e-029)
(2.00281e-006 -1.30472e-007 -2.53101e-020)
(1.51051e-005 -1.02732e-006 0)
(0.000128828 -7.68075e-006 -5.34586e-020)
(0.000824697 -5.08081e-005 5.49371e-020)
(0.00557482 -0.000300301 0)
(0.0294836 -0.00159657 0)
(0.153813 -0.00712468 0)
(0.631193 -0.0317277 -6.10387e-020)
(2.30512 -0.10723 6.2999e-020)
(6.69257 -0.304911 0)
(16.9362 -0.68284 6.29822e-020)
(35.5035 -1.31465 -6.81586e-020)
(63.8713 -2.02436 0)
(99.036 -2.60865 0)
(136.233 -2.89484 0)
(171.413 -2.95184 -5.83528e-020)
(204.601 -2.69074 7.93327e-021)
(233.078 -3.28078 6.61853e-020)
(256.613 -3.44534 0)
(277.311 -3.64452 0)
(292.087 -5.38114 -6.23422e-020)
(295.212 -2.79106 7.29167e-020)
(293.455 -3.66121 0)
(293.912 -4.29317 0)
(292.892 -5.10595 0)
(289.46 -5.1727 0)
(283.744 -4.65252 0)
(273.779 -2.72187 0)
(248.533 -1.7784 0)
(171.661 -4.17384 0)
(51.3125 13.4955 0)
(7.54887 1.84057 1.87887e-019)
(1.12415 0.238462 -1.96612e-019)
(0.179554 0.0436589 0)
(0.0266708 0.00467117 0)
(0.00438584 0.00058103 0)
(0.000673534 0.000146258 -2.1624e-019)
(0.000138223 2.11411e-006 2.2222e-019)
(1.45613e-005 7.95333e-006 0)
(6.49966e-006 -9.38e-007 0)
(-1.10475e-007 5.64831e-007 0)
(4.27424e-007 -1.19339e-007 0)
(-5.82731e-008 4.24311e-008 0)
(3.04054e-008 -9.44564e-009 0)
(-6.07779e-009 3.15751e-009 2.68974e-019)
(2.09092e-009 -9.18781e-010 -2.76413e-019)
(-5.02804e-010 2.61641e-010 -2.84056e-019)
(1.37911e-010 -7.22768e-011 2.91912e-019)
(-4.75504e-011 4.42314e-011 -2.99984e-019)
(2.59416e-012 -2.23117e-012 0)
(1.28867e-012 -5.07377e-012 4.98367e-021)
(-3.36807e-012 -4.39405e-012 -4.99334e-035)
(-3.04093e-012 7.66759e-013 -1.57894e-020)
(3.52516e-014 6.02123e-013 1.08173e-020)
(6.73919e-012 8.25032e-013 0)
(8.58458e-012 -4.17055e-012 -2.28478e-020)
(1.61681e-010 -4.46942e-012 2.34796e-020)
(1.60457e-009 -5.40695e-011 0)
(2.11444e-008 -5.55843e-010 0)
(1.82681e-007 -2.88461e-009 0)
(1.95601e-006 -1.78798e-008 -2.61866e-020)
(1.46925e-005 -8.09788e-009 5.38215e-020)
(0.000126376 5.69343e-007 -2.76549e-020)
(0.000807982 9.13669e-006 -5.68389e-020)
(0.00548856 8.17176e-005 5.84114e-020)
(0.0290253 0.000566672 0)
(0.151611 0.00338493 0)
(0.622383 0.0109274 6.31555e-020)
(2.27747 0.0387662 -6.51801e-020)
(6.62253 0.11251 0)
(16.7846 0.321035 0)
(35.2256 0.669603 0)
(63.4171 1.2883 6.34493e-020)
(98.3487 2.12879 -7.18595e-020)
(135.184 2.74542 -6.15973e-020)
(169.737 3.24185 6.96836e-020)
(202.556 4.30732 0)
(230.665 3.86534 -6.15866e-020)
(253.8 3.20268 6.63161e-020)
(274.105 2.45664 0)
(288.99 -1.41979 0)
(291.816 0.866731 0)
(289.491 0.0685348 -8.45263e-020)
(289.51 0.334365 9.89047e-020)
(288.419 1.33284 0)
(285.144 3.98683 0)
(279.847 6.94027 0)
(271.026 10.2293 0)
(248.197 10.0215 2.26207e-019)
(176.295 -0.180544 -4.62542e-019)
(57.7307 16.5704 2.79163e-019)
(8.77573 2.27029 1.94235e-019)
(1.36407 0.372871 -2.04003e-019)
(0.22042 0.0594084 0)
(0.033482 0.00759937 0)
(0.00561925 0.00103023 0)
(0.000864324 0.000184988 0)
(0.000178672 2.1011e-005 2.29915e-019)
(1.95739e-005 5.17144e-006 -2.36273e-019)
(7.9401e-006 4.52747e-007 0)
(-3.80696e-008 1.26046e-007 2.49521e-019)
(4.91816e-007 1.65745e-008 -2.56421e-019)
(-7.05197e-008 -9.99323e-009 -2.63513e-019)
(3.81553e-008 4.42297e-009 5.9086e-029)
(-8.94497e-009 -2.29848e-009 2.78289e-019)
(3.24453e-009 9.01569e-010 -2.85984e-019)
(-8.15482e-010 -2.87896e-010 2.93893e-019)
(2.49325e-010 9.57836e-011 3.0202e-019)
(-9.56281e-011 -4.3682e-011 -6.20745e-019)
(2.78879e-012 -1.14124e-012 0)
(9.86453e-013 -4.50697e-012 0)
(-3.22053e-012 -1.80603e-012 0)
(-2.22087e-012 8.08249e-013 0)
(1.23172e-014 7.59461e-013 0)
(6.14108e-012 -9.54338e-013 0)
(7.51595e-012 -3.9615e-012 2.36381e-020)
(1.47417e-010 -1.20003e-011 -2.42918e-020)
(1.38968e-009 -1.31908e-010 0)
(1.90616e-008 -1.54413e-009 0)
(1.58169e-007 -1.34681e-008 -2.63633e-020)
(1.75248e-006 -1.25032e-007 2.70924e-020)
(1.27768e-005 -9.67654e-007 0)
(0.000113058 -7.14737e-006 0)
(0.000709673 -4.709e-005 0)
(0.00493175 -0.00027428 0)
(0.0259125 -0.00146949 0)
(0.138162 -0.00638897 0)
(0.571166 -0.0297957 0)
(2.12578 -0.101157 0)
(6.2341 -0.293255 0)
(15.9822 -0.644023 -6.75708e-020)
(33.8481 -1.25523 7.29879e-020)
(61.5113 -1.89008 0)
(96.1405 -2.38024 0)
(133.151 -2.52087 0)
(168.448 -2.60856 6.28667e-020)
(201.74 -1.91547 -7.28473e-020)
(230.036 -2.66776 0)
(253.585 -2.61107 0)
(274.234 -2.04867 0)
(289.74 -4.81896 0)
(293.211 -1.57148 0)
(290.546 -3.2026 0)
(289.827 -4.54535 0)
(287.741 -5.26624 0)
(283.512 -4.44754 0)
(278.054 -2.50898 0)
(270.173 0.324064 0)
(250.578 0.443443 0)
(185.32 -5.77816 0)
(66.4551 18.8985 0)
(10.3404 2.65247 -2.00767e-019)
(1.65752 0.502401 2.11787e-019)
(0.269143 0.0772171 0)
(0.0419737 0.0110338 0)
(0.00699881 0.00131823 0)
(0.00115474 0.00031424 0)
(0.000213766 2.39142e-005 0)
(3.22702e-005 9.63697e-006 2.44445e-019)
(8.3257e-006 3.29425e-008 -2.51205e-019)
(7.75458e-007 4.97083e-007 0)
(4.18273e-007 -6.79297e-008 0)
(9.56997e-010 3.72101e-008 0)
(2.33703e-008 -7.72045e-009 0)
(-1.64974e-009 3.08475e-009 0)
(1.2305e-009 -8.61577e-010 0)
(-1.77102e-010 2.46862e-010 0)
(6.64806e-011 -7.71996e-011 0)
(-1.47518e-011 3.60031e-011 0)
(2.42846e-012 1.1022e-012 0)
(1.24523e-012 -4.74701e-012 0)
(-3.09501e-012 -6.43594e-012 0)
(-2.99388e-012 8.57467e-013 0)
(-9.98911e-014 2.42673e-012 0)
(6.51361e-012 -1.99302e-012 0)
(6.67378e-012 -5.69278e-012 0)
(1.41094e-010 -7.20158e-012 0)
(1.30007e-009 -7.91164e-011 0)
(1.83687e-008 -8.74151e-010 0)
(1.50042e-007 -5.77824e-009 0)
(1.69688e-006 -4.59435e-008 0)
(1.22714e-005 -2.36237e-007 0)
(0.000110009 -1.12744e-006 0)
(0.000688393 -2.53971e-006 0)
(0.00481992 1.42657e-005 0)
(0.0253101 0.000187794 0)
(0.135297 0.0018035 0)
(0.559627 0.00340328 0)
(2.08926 0.0138837 0)
(6.14081 0.0368674 0)
(15.7813 0.162256 0)
(33.4882 0.349573 0)
(60.9559 0.835811 0)
(95.3785 1.63031 0)
(132.107 2.36704 0)
(166.754 2.67399 0)
(199.562 3.53687 0)
(227.547 3.26315 0)
(250.956 2.4752 0)
(271.836 2.71135 0)
(288.629 -1.04198 0)
(293.839 2.02671 0)
(292.48 0.364911 0)
(292.761 -0.234373 -1.05225e-019)
(291.349 0.274933 1.17482e-019)
(287.032 2.81204 0)
(280.85 5.51524 0)
(272.459 8.32488 0)
(253.223 7.89528 0)
(191.68 -3.29803 1.01371e-019)
(74.3616 20.7274 -1.56121e-019)
(11.9146 3.07771 0)
(1.96917 0.656047 0)
(0.320374 0.0981868 0)
(0.0510575 0.0146602 0)
(0.00861545 0.00189476 -1.16509e-019)
(0.00144347 0.000419332 1.19734e-019)
(0.000267178 4.32249e-005 0)
(4.0579e-005 9.97904e-006 0)
(1.05602e-005 1.54394e-006 0)
(9.47753e-007 2.20425e-007 0)
(5.28956e-007 6.41924e-008 0)
(-7.90907e-009 -8.80786e-009 0)
(3.33621e-008 7.0803e-009 0)
(-4.59487e-009 -2.3678e-009 0)
(2.54954e-009 9.52256e-010 0)
(-4.99199e-010 -2.72339e-010 0)
(1.85543e-010 8.97399e-011 0)
(-6.09816e-011 -4.22325e-011 0)
(2.53298e-012 -1.90779e-012 -2.68491e-021)
(7.21341e-013 -3.70115e-012 8.27749e-021)
(-2.90433e-012 -4.46016e-012 -5.67093e-021)
(-1.98025e-012 7.80937e-013 0)
(-2.21147e-013 1.38077e-012 0)
(5.84472e-012 -7.57056e-013 0)
(6.01069e-012 -5.0526e-012 0)
(1.30892e-010 -1.17938e-011 -2.59986e-020)
(1.13354e-009 -1.23942e-010 2.67175e-020)
(1.68404e-008 -1.47022e-009 2.74564e-020)
(1.31203e-007 -1.24907e-008 -2.82156e-020)
(1.54586e-006 -1.15452e-007 -2.89959e-020)
(1.07949e-005 -8.86946e-007 2.97978e-020)
(9.99481e-005 -6.45493e-006 0)
(0.000611863 -4.27649e-005 3.14684e-020)
(0.00438944 -0.000245109 -3.23389e-020)
(0.0228523 -0.00133346 0)
(0.124585 -0.00565995 0)
(0.518138 -0.0277034 -6.9967e-020)
(1.96545 -0.0941768 7.45126e-022)
(5.82017 -0.279275 7.42088e-020)
(15.1113 -0.603562 0)
(32.3239 -1.18937 0)
(59.3266 -1.7528 7.06963e-020)
(93.4412 -2.15448 -7.98055e-020)
(130.281 -2.15338 0)
(165.549 -2.30537 0)
(198.738 -1.48959 0)
(226.858 -1.95107 0)
(250.678 -2.24849 0)
(271.957 -1.07653 0)
(289.652 -3.65162 0)
(296.206 -0.482279 -7.9736e-020)
(295.144 -2.96193 9.41372e-020)
(295.281 -4.74016 -1.09463e-019)
(293.657 -5.42398 2.43901e-019)
(289.081 -3.91428 -1.30365e-019)
(282.701 -1.17108 0)
(274.358 2.00408 -1.36928e-019)
(256.541 2.45238 2.76701e-019)
(199.794 -5.35554 -1.51003e-019)
(84.1395 20.5694 0)
(13.8129 3.59175 1.07235e-019)
(2.32499 0.8114 -2.25076e-019)
(0.377587 0.122729 1.14622e-019)
(0.0615375 0.0184959 -1.17284e-019)
(0.0103895 0.00256647 1.20546e-019)
(0.00181341 0.000574608 0)
(0.000317786 4.8381e-005 0)
(5.60435e-005 1.73722e-005 0)
(1.17849e-005 1.16942e-006 -1.34428e-019)
(1.78974e-006 5.99548e-007 1.38145e-019)
(5.12831e-007 -9.38498e-009 -1.41965e-019)
(5.63357e-008 3.52218e-008 1.45891e-019)
(2.43555e-008 -7.27682e-009 0)
(1.59318e-009 3.04724e-009 0)
(1.01169e-009 -7.77833e-010 0)
(2.8502e-011 2.31119e-010 0)
(4.01089e-011 -7.00053e-011 0)
(1.53342e-012 2.77042e-011 0)
(2.41973e-012 1.89532e-012 -2.77749e-021)
(1.11724e-012 -2.8755e-012 -2.8543e-021)
(-3.02053e-012 -5.64599e-012 5.86647e-021)
(-2.62491e-012 3.44274e-012 0)
(-2.42875e-013 2.35225e-012 0)
(6.13211e-012 8.44413e-013 0)
(5.1813e-012 -5.44713e-012 0)
(1.24797e-010 -1.13711e-011 -1.34475e-020)
(1.04343e-009 -8.92254e-011 4.14581e-020)
(1.61608e-008 -1.02605e-009 -8.21451e-030)
(1.22824e-007 -7.32829e-009 -6.147e-029)
(1.48898e-006 -6.11057e-008 -5.99915e-020)
(1.02583e-005 -3.78089e-007 4.513e-027)
(9.66954e-005 -2.16835e-006 3.81616e-026)
(0.000588536 -1.05988e-005 3.25537e-020)
(0.00426552 -3.27287e-005 -3.34526e-020)
(0.0221729 -9.54109e-005 3.43794e-020)
(0.121378 0.000548385 -3.52979e-020)
(0.505095 -0.00240999 3.63137e-020)
(1.92385 -0.00570179 0)
(5.71273 -0.0242946 0)
(14.8798 0.0246038 0)
(31.9109 0.0782037 0)
(58.7015 0.427032 -7.31786e-020)
(92.6341 1.11578 8.26312e-020)
(129.244 2.01286 0)
(163.97 2.31 0)
(196.786 3.25061 0)
(224.625 3.30847 7.02929e-020)
(248.259 2.47231 -1.45584e-019)
(269.623 2.80401 4.16292e-021)
(288.209 -0.55625 7.88711e-020)
(295.934 1.98744 0)
(295.555 -0.151174 0)
(296.412 -1.44691 1.12958e-019)
(295.432 -0.625573 -1.25842e-019)
(291.062 1.78693 -1.34462e-019)
(284.474 4.4771 1.40645e-019)
(275.987 7.04677 0)
(258.681 6.73173 1.37081e-019)
(205.769 -2.60329 -1.55719e-019)
(93.4864 19.3628 0)
(15.9658 4.26904 0)
(2.70768 0.976154 1.1471e-019)
(0.440303 0.152553 -1.18653e-019)
(0.0726635 0.021779 0)
(0.01248 0.00366779 0)
(0.00218253 0.000672058 0)
(0.00038776 7.98501e-005 1.31679e-019)
(6.85414e-005 1.9599e-005 -1.35321e-019)
(1.46648e-005 2.69067e-006 0)
(2.13543e-006 4.58685e-007 0)
(6.67037e-007 1.39087e-007 -1.4686e-019)
(5.51054e-008 -7.26377e-010 1.50922e-019)
(3.59774e-008 1.0615e-008 0)
(-3.95644e-010 -2.2381e-009 -1.59384e-019)
(2.32729e-009 9.98196e-010 2.71041e-030)
(-2.41248e-010 -2.36644e-010 3.36643e-019)
(1.55346e-010 8.3353e-011 -1.72976e-019)
(-3.79759e-011 -3.40052e-011 1.7776e-019)
(2.46686e-012 1.16491e-013 0)
(5.84043e-013 -2.3699e-012 0)
(-2.78099e-012 -2.87958e-012 0)
(-1.78696e-012 3.53134e-012 0)
(-1.98254e-013 3.66643e-012 -1.28177e-020)
(5.48151e-012 3.23602e-013 1.31721e-020)
(4.40434e-012 -6.73707e-012 0)
(1.17506e-010 -1.40738e-011 0)
(9.11525e-010 -1.14447e-010 0)
(1.50317e-008 -1.36566e-009 0)
(1.08086e-007 -1.14267e-008 0)
(1.37616e-006 -1.04445e-007 0)
(9.10521e-006 -8.06823e-007 0)
(8.90488e-005 -5.73749e-006 0)
(0.000528388 -3.8664e-005 0)
(0.00393087 -0.000217135 0)
(0.0202191 -0.00120422 0)
(0.112789 -0.00502922 0)
(0.471237 -0.0255914 0)
(1.82199 -0.0874286 0)
(5.44586 -0.265244 0)
(14.3161 -0.570289 0)
(30.9198 -1.13299 0)
(57.2995 -1.64425 0)
(90.9293 -1.98473 0)
(127.599 -1.89806 0)
(162.843 -2.08821 0)
(196.059 -0.936531 0)
(224.013 -1.11368 0)
(247.9 -1.74643 0)
(269.381 -0.514658 0)
(288.339 -2.6979 0)
(296.579 -0.566013 0)
(296.085 -2.58499 1.0005e-019)
(296.862 -4.70238 -2.33277e-019)
(296.075 -4.84935 1.30336e-019)
(291.96 -3.05115 1.39407e-019)
(285.501 -0.0528239 -1.45554e-019)
(277.167 2.96121 0)
(261.064 3.60172 0)
(212.319 -2.78617 0)
(103.132 17.3023 0)
(18.5078 5.09032 0)
(3.13117 1.15289 0)
(0.509334 0.184244 0)
(0.084983 0.025473 0)
(0.0148125 0.00494691 1.28982e-019)
(0.00260986 0.000790721 -1.32553e-019)
(0.000460573 0.000108308 1.36215e-019)
(8.66575e-005 2.67677e-005 -1.39982e-019)
(1.68546e-005 2.78021e-006 0)
(3.06753e-006 9.20499e-007 0)
(7.05369e-007 6.81414e-008 0)
(1.1607e-007 4.26083e-008 0)
(3.16264e-008 -2.77672e-009 0)
(4.58325e-009 3.32956e-009 -1.64875e-019)
(1.32104e-009 -6.4719e-010 1.69434e-019)
(1.8998e-010 2.25296e-010 0)
(4.47512e-011 -5.91484e-011 0)
(1.12428e-011 1.853e-011 0)
(2.2708e-012 3.43119e-012 0)
(9.28153e-013 -3.34977e-012 0)
(-2.81172e-012 -4.24908e-012 0)
(-2.48149e-012 5.84059e-012 0)
(-3.32992e-013 -4.51012e-013 1.32588e-020)
(5.82106e-012 6.03934e-013 -1.36254e-020)
(3.66954e-012 -5.34276e-012 0)
(1.12136e-010 -1.13914e-011 0)
(8.26498e-010 -9.23098e-011 1.47874e-020)
(1.4416e-008 -1.06902e-009 -1.51963e-020)
(1.00024e-007 -8.02723e-009 -3.12331e-020)
(1.32249e-006 -6.73224e-008 6.41936e-020)
(8.57645e-006 -4.60307e-007 -3.29844e-020)
(8.58554e-005 -2.72176e-006 0)
(0.00050477 -1.59236e-005 0)
(0.00380476 -6.33122e-005 0)
(0.0195133 -0.000295671 -3.67809e-020)
(0.109482 -0.000429729 7.55792e-020)
(0.457612 -0.00646336 -3.88568e-020)
(1.77821 -0.0206634 0)
(5.33141 -0.0718248 0)
(14.0682 -0.0920166 0)
(30.4766 -0.153695 0)
(56.6325 0.061087 0)
(90.0937 0.642637 0)
(126.578 1.66913 0)
(161.357 1.90467 0)
(194.371 2.79108 -7.66463e-020)
(222.256 2.92669 8.43035e-020)
(246.104 1.83676 0)
(267.618 2.43091 0)
(287.061 0.165366 0)
(295.853 1.05217 0)
(295.485 -0.136389 0)
(296.365 -1.94304 0)
(295.738 -1.22934 0)
(291.81 0.652639 0)
(285.554 3.44289 0)
(277.59 5.98302 -1.52416e-019)
(262.407 6.19285 1.60495e-019)
(217.329 -0.635016 0)
(112.095 15.252 0)
(21.38 6.07831 1.1842e-019)
(3.58779 1.34249 -1.27896e-019)
(0.585044 0.217762 0)
(0.0981859 0.0295123 1.29822e-019)
(0.0174838 0.00651882 -1.33448e-019)
(0.00303735 0.000862095 0)
(0.000554141 0.000161488 0)
(0.000102411 2.89938e-005 0)
(2.05981e-005 4.91986e-006 0)
(3.60929e-006 8.51303e-007 -1.52919e-019)
(8.98066e-007 2.15435e-007 1.57147e-019)
(1.27149e-007 1.6626e-008 1.61493e-019)
(4.45247e-008 1.28625e-008 -6.17516e-029)
(3.83789e-009 -1.31201e-009 -1.70549e-019)
(2.46075e-009 1.00528e-009 1.75265e-019)
(2.44528e-011 -2.04521e-010 -1.80112e-019)
(1.48094e-010 7.68273e-011 1.85093e-019)
(-2.01924e-011 -2.67628e-011 -3.80422e-019)
(2.21539e-012 1.9964e-012 0)
(4.35492e-013 -4.25953e-012 3.15924e-021)
(-2.50415e-012 -3.94227e-012 -3.24661e-021)
(-1.75961e-012 5.56221e-012 0)
(-3.60565e-013 2.47632e-012 0)
(5.35435e-012 1.05327e-012 0)
(3.05917e-012 -6.71087e-012 0)
(1.06744e-010 -1.15682e-011 0)
(7.19657e-010 -1.03519e-010 1.52958e-020)
(1.3575e-008 -1.24602e-009 -1.57188e-020)
(8.82686e-008 -1.04434e-008 0)
(1.23741e-006 -9.31685e-008 0)
(7.66189e-006 -7.36098e-007 3.41185e-020)
(7.99902e-005 -5.04601e-006 -3.5062e-020)
(0.000456916 -3.51155e-005 -3.60314e-020)
(0.00354251 -0.000191603 1.33141e-024)
(0.0179444 -0.00108788 3.80523e-020)
(0.102544 -0.00451948 0)
(0.429719 -0.0234165 4.00744e-020)
(1.6936 -0.0813678 -4.13142e-020)
(5.107 -0.252089 0)
(13.5894 -0.545541 4.16461e-020)
(29.6255 -1.09208 -8.60538e-020)
(55.4176 -1.57422 4.55643e-020)
(88.5913 -1.84574 -4.00648e-020)
(125.089 -1.63186 4.55962e-020)
(160.261 -1.79992 -7.77211e-020)
(193.628 -0.591594 1.07855e-020)
(221.623 -0.50549 8.73217e-020)
(245.715 -1.38432 0)
(267.419 -0.141961 0)
(287.174 -1.41979 0)
(296.537 -1.389 -9.06788e-020)
(296.229 -1.59034 1.09012e-019)
(296.691 -3.82506 0)
(295.556 -4.01941 -1.39493e-019)
(291.321 -3.09007 1.48359e-019)
(285.072 0.0604625 -1.54554e-019)
(277.416 3.07309 2.878e-021)
(263.477 4.0859 1.15563e-020)
(222.228 -0.480625 4.19301e-020)
(120.899 13.18 6.54559e-020)
(24.6004 7.16416 1.53843e-019)
(4.08609 1.55137 -1.26873e-019)
(0.667389 0.249897 1.31651e-019)
(0.112802 0.0350245 0)
(0.0203984 0.00807102 0)
(0.0035185 0.000984464 0)
(0.000654183 0.000210299 0)
(0.000122751 3.58031e-005 0)
(2.39493e-005 5.72422e-006 0)
(4.63385e-006 1.34382e-006 -1.58176e-019)
(9.97235e-007 1.74001e-007 3.25101e-019)
(1.89066e-007 5.9055e-008 -3.04215e-028)
(4.4451e-008 3.95284e-009 -1.71665e-019)
(8.18173e-009 3.44253e-009 0)
(1.99041e-009 -2.71881e-010 0)
(3.62166e-010 2.39879e-010 0)
(7.91463e-011 -4.71588e-011 0)
(1.9224e-011 1.95673e-011 -1.96751e-019)
(2.13921e-012 2.01909e-012 0)
(7.28484e-013 -5.29735e-012 -3.26777e-021)
(-2.62356e-012 -4.12154e-012 1.00744e-020)
(-2.25175e-012 8.81015e-012 -6.902e-021)
(-3.50256e-013 1.41351e-013 0)
(5.47363e-012 1.46262e-012 1.4578e-020)
(2.33728e-012 -3.77826e-012 -2.99623e-020)
(1.02407e-010 -1.18413e-011 1.53955e-020)
(6.42043e-010 -9.0718e-011 1.58212e-020)
(1.3044e-008 -1.04002e-009 -1.62587e-020)
(8.08097e-008 -8.23051e-009 -1.67083e-020)
(1.18923e-006 -6.75446e-008 5.15112e-020)
(7.16326e-006 -5.03939e-007 -7.05809e-020)
(7.70112e-005 -2.92794e-006 3.62664e-020)
(0.000434126 -1.93021e-005 0)
(0.00342077 -8.10291e-005 0)
(0.0172475 -0.000430607 0)
(0.0993009 -0.00116441 -4.04169e-020)
(0.416159 -0.00901348 4.15729e-020)
(1.64971 -0.0316983 -4.23495e-020)
(4.99084 -0.107399 4.39414e-020)
(13.3359 -0.186422 4.31031e-020)
(29.1695 -0.342258 -4.63035e-020)
(54.7314 -0.258698 0)
(87.7447 0.207801 0)
(124.093 1.34802 0)
(158.872 1.59469 0)
(192.109 2.52147 0)
(220.135 3.11946 0)
(244.263 1.88406 -7.94258e-020)
(266.051 2.19732 8.7176e-020)
(286.254 0.873928 -8.46796e-020)
(296.408 -0.121208 9.89694e-020)
(296.625 0.356237 0)
(297.304 -1.80653 1.29326e-019)
(296.285 -1.52096 -1.43377e-019)
(291.897 -1.03335 1.53271e-019)
(285.357 1.83434 -1.60178e-019)
(277.72 4.52299 0)
(264.54 5.4237 -1.60266e-019)
(226.454 0.911923 4.08482e-020)
(129.167 11.3328 6.66544e-020)
(28.1184 8.35791 1.63058e-019)
(4.62471 1.77454 0)
(0.756696 0.281411 0)
(0.128793 0.0419294 -1.38896e-019)
(0.023587 0.00967018 1.42787e-019)
(0.00401955 0.00110555 0)
(0.000772508 0.000276536 1.50754e-019)
(0.000141735 3.88319e-005 -3.09846e-019)
(2.86928e-005 8.36728e-006 4.70483e-026)
(5.383e-006 1.34285e-006 1.6361e-019)
(1.22936e-006 3.29974e-007 0)
(2.14235e-007 3.97325e-008 0)
(5.86206e-008 1.69716e-008 1.77562e-019)
(8.46829e-009 4.27346e-010 -3.64944e-019)
(3.00682e-009 1.02016e-009 4.75996e-030)
(3.0564e-010 -1.17173e-010 3.85408e-019)
(1.62052e-010 7.21834e-011 -1.98033e-019)
(-1.80857e-012 -1.90195e-011 0)
(2.01401e-012 3.07382e-012 0)
(2.21451e-013 -3.44915e-012 -3.37992e-021)
(-2.12105e-012 -1.69469e-012 3.47339e-021)
(-1.60749e-012 6.04149e-012 -7.13888e-021)
(-5.33686e-013 3.39291e-012 7.3363e-021)
(5.1727e-012 -9.68825e-013 0)
(1.82344e-012 -6.78031e-012 1.54953e-020)
(9.83964e-011 -9.33419e-012 -3.18477e-020)
(5.53802e-010 -9.55043e-011 1.63642e-020)
(1.24127e-008 -1.1203e-009 1.68167e-020)
(7.12562e-008 -9.60451e-009 -1.72818e-020)
(1.1244e-006 -8.20562e-008 0)
(6.42604e-006 -6.77816e-007 0)
(7.24627e-005 -4.39481e-006 0)
(0.000395541 -3.22035e-005 0)
(0.00321323 -0.000168401 3.96132e-020)
(0.0159724 -0.000987905 -8.14143e-020)
(0.0936523 -0.00411302 8.36426e-020)
(0.392936 -0.0212489 -8.58813e-020)
(1.57866 -0.0761165 4.41989e-020)
(4.80008 -0.240242 4.44731e-020)
(12.9253 -0.526359 -4.66968e-020)
(28.4322 -1.05152 0)
(53.6689 -1.51388 0)
(86.4159 -1.75297 0)
(122.743 -1.39588 0)
(157.806 -1.58537 0)
(191.355 -0.256009 0)
(219.488 0.41205 4.19245e-020)
(243.835 -0.803178 -8.60095e-020)
(265.923 -0.192314 4.51241e-020)
(286.506 -0.621357 0)
(297.388 -2.07649 0)
(298.017 -0.890485 -1.13887e-019)
(298.716 -3.07465 -2.99965e-022)
(297.86 -3.30165 -7.50036e-022)
(293.62 -3.58831 -4.68959e-022)
(286.924 -0.364445 5.40947e-022)
(279.021 2.83613 1.71493e-019)
(266.339 4.33136 -1.66636e-019)
(230.979 1.13246 3.2833e-019)
(137.31 9.4119 -1.9691e-019)
(31.9356 9.63907 0)
(5.20844 2.01345 0)
(0.853155 0.311508 1.39734e-019)
(0.146579 0.050964 -1.4392e-019)
(0.0269641 0.0110822 0)
(0.00458676 0.00131216 -1.51731e-019)
(0.000897599 0.000334302 3.11857e-019)
(0.000164871 4.70005e-005 -1.6024e-019)
(3.32675e-005 9.83127e-006 1.64671e-019)
(6.52744e-006 1.8767e-006 -1.69225e-019)
(1.39487e-006 3.22793e-007 -1.73905e-019)
(2.79545e-007 8.31049e-008 1.78714e-019)
(6.31841e-008 1.08253e-008 1.83656e-019)
(1.26617e-008 4.28803e-009 -1.88735e-019)
(2.92993e-009 2.65269e-010 0)
(5.90549e-010 2.4664e-010 0)
(1.33983e-010 -2.22889e-011 0)
(2.78568e-011 1.98806e-011 0)
(2.04823e-012 2.07818e-012 0)
(6.37963e-013 -5.01121e-012 0)
(-2.36907e-012 -4.2882e-012 0)
(-2.17921e-012 8.2326e-012 0)
(-5.79607e-013 1.43916e-012 0)
(5.25162e-012 -7.76988e-014 0)
(1.29744e-012 -2.28254e-012 0)
(9.49647e-011 -7.79811e-012 0)
(4.84283e-010 -8.73285e-011 0)
(1.19698e-008 -9.70474e-010 0)
(6.45093e-008 -8.1828e-009 0)
(1.08255e-006 -6.39579e-008 0)
(5.96835e-006 -5.24452e-007 0)
(6.97754e-005 -2.89504e-006 0)
(0.00037422 -2.13465e-005 0)
(0.00309972 -8.89587e-005 0)
(0.0153069 -0.000518732 0)
(0.0905744 -0.00168318 0)
(0.379864 -0.0104648 0)
(1.53605 -0.0395659 0)
(4.68593 -0.133699 0)
(12.6742 -0.261901 0)
(27.9772 -0.488102 -4.58258e-020)
(52.981 -0.516011 5.04773e-020)
(85.5716 -0.182439 0)
(121.77 1.06225 0)
(156.537 1.26394 0)
(189.998 2.19248 0)
(218.187 3.12968 0)
(242.657 1.79476 0)
(264.955 1.74966 0)
(286.001 0.954266 0)
(297.766 -0.964734 -4.95378e-020)
(299.038 0.403471 6.02031e-020)
(300.124 -1.80316 0)
(299.785 -1.92151 0)
(295.876 -1.9307 0)
(289.123 1.01266 0)
(280.932 3.97097 0)
(268.386 5.47259 0)
(235.164 2.2899 0)
(145.054 7.45902 1.33476e-019)
(36.0196 11.0078 -1.82959e-019)
(5.83613 2.25878 0)
(0.957162 0.341329 0)
(0.166158 0.0618317 0)
(0.0305312 0.0123501 0)
(0.00520048 0.00156238 -1.56934e-019)
(0.00103656 0.000400305 1.61276e-019)
(0.000187931 5.30185e-005 0)
(3.89899e-005 1.27753e-005 0)
(7.50244e-006 1.99686e-006 0)
(1.66823e-006 4.86477e-007 0)
(3.19931e-007 7.33769e-008 0)
(7.85986e-008 2.28252e-008 0)
(1.40681e-008 2.32411e-009 0)
(3.91899e-009 1.22735e-009 0)
(6.11969e-010 2.93488e-011 0)
(2.0254e-010 7.00185e-011 0)
(1.80709e-011 -8.99344e-012 0)
(1.74222e-012 4.11744e-012 0)
(1.10798e-013 -3.40393e-012 0)
(-1.77815e-012 -1.92776e-012 3.71558e-021)
(-1.50327e-012 6.59395e-012 -3.81833e-021)
(-8.17039e-013 4.82134e-012 0)
(5.07149e-012 -2.7877e-012 0)
(1.01965e-012 -6.4956e-012 0)
(9.18204e-011 -8.25259e-012 0)
(4.10039e-010 -8.79959e-011 -1.75052e-020)
(1.14929e-008 -9.94163e-010 3.59787e-020)
(5.66113e-008 -8.93799e-009 -1.84868e-020)
(1.03262e-006 -7.12587e-008 0)
(5.36475e-006 -6.32147e-007 0)
(6.62065e-005 -3.78369e-006 0)
(0.000342686 -2.98838e-005 0)
(0.00293368 -0.000147201 -4.23754e-020)
(0.0142575 -0.00090571 6.02926e-024)
(0.0859363 -0.00377507 4.47541e-020)
(0.360318 -0.0192025 0)
(1.47573 -0.071736 0)
(4.52195 -0.23076 4.76161e-020)
(12.3186 -0.515518 -4.99547e-020)
(27.3326 -1.02131 0)
(52.0432 -1.47029 0)
(84.3918 -1.694 0)
(120.544 -1.1845 0)
(155.513 -1.4112 4.46472e-020)
(189.215 -0.0122462 -6.25002e-021)
(217.476 1.00067 -5.037e-020)
(242.155 -0.398357 0)
(264.827 -0.387301 0)
(286.339 -0.478807 0)
(298.92 -2.78529 0)
(300.803 -0.596822 6.06441e-020)
(302.146 -2.70894 1.49553e-022)
(302.119 -3.08926 -1.58247e-019)