/*--------------------------------*- C++ -*----------------------------------*\
| =========                 |                                                 |
| \\      /  F ield         | OpenFOAM: The Open Source CFD Toolbox           |
|  \\    /   O peration     | Version:  5.x                                   |
|   \\  /    A nd           | Web:      www.OpenFOAM.org                      |
|    \\/     M anipulation  |                                                 |
\*---------------------------------------------------------------------------*/
/*   Windows 32 and 64 bit porting by blueCAPE: http://www.bluecape.com.pt   *\
|  Based on Windows porting (2.0.x v4) by Symscape: http://www.symscape.com   |
\*---------------------------------------------------------------------------*/
FoamFile
{
    version     2.0;
    format      ascii;
    class       volScalarField;
    location    "0.001";
    object      mag(U);
}
// * * * * * * * * * * * * * * * * * * * * * * * * * * * * * * * * * * * * * //

dimensions      [0 1 -1 0 0 0 0];

internalField   nonuniform List<scalar> 
100
(
0.109419
3.16591
41.6504
188.9
39.7246
3.51691
0.0864128
2.29008
38.9558
180.943
50.0654
4.87366
0.0809067
2.00918
39.3333
183.701
58.0015
6.1854
0.0758541
1.74978
38.6924
183.669
60.5693
6.61986
0.0730925
1.55324
38.8015
186.202
65.7472
7.76424
0.0683352
1.25622
38.2359
187.864
57.5283
7.12919
0.073193
1.68149
39.2949
193.3
52.7125
5.56931
0.0724315
1.71822
39.2928
192.663
47.2212
4.66467
0.0725949
1.76437
39.4206
192.519
45.8015
4.45015
0.0725866
1.76685
39.4327
192.524
45.6654
4.43067
1.22452
0.310569
0.868358
0.240466
0.713813
0.200724
0.6813
0.192298
0.67876
0.191623
0.000582186
8.10143e-005
1.91127e-006
0.00283528
0.000240865
5.05495e-006
0.00736681
0.000581147
6.52231e-006
0.014414
0.0010579
9.97912e-006
0.0191555
0.00165964
2.13219e-005
0.0594924
0.00313519
5.68779e-005
0.0446248
0.00299409
5.11856e-005
0.0370386
0.00269211
4.56955e-005
0.0355
0.00260347
4.42251e-005
0.035377
0.00259609
4.41068e-005
)
;

boundaryField
{
    inlet
    {
        type            calculated;
        value           nonuniform List<scalar> 10(0.0683352 0.073193 0.0724315 0.0725949 0.0725866 0.109419 0.0864128 0.0809067 0.0758541 0.0730925);
    }
    outlet
    {
        type            calculated;
        value           nonuniform List<scalar> 10(5.68779e-005 5.11856e-005 4.56955e-005 4.42251e-005 4.41068e-005 1.91127e-006 5.05495e-006 6.52231e-006 9.97912e-006 2.13219e-005);
    }
    bottom
    {
        type            symmetryPlane;
    }
    top
    {
        type            symmetryPlane;
    }
    obstacle
    {
        type            calculated;
        value           nonuniform List<scalar> 
12
(
3.51691
4.87366
6.1854
6.61986
7.76424
0.000582186
0.00283528
0.00736681
0.014414
0.0191555
1.22452
0.310569
)
;
    }
    defaultFaces
    {
        type            empty;
    }
}


// ************************************************************************* //
