/*--------------------------------*- C++ -*----------------------------------*\
| =========                 |                                                 |
| \\      /  F ield         | OpenFOAM: The Open Source CFD Toolbox           |
|  \\    /   O peration     | Version:  5.x                                   |
|   \\  /    A nd           | Web:      www.OpenFOAM.org                      |
|    \\/     M anipulation  |                                                 |
\*---------------------------------------------------------------------------*/
/*   Windows 32 and 64 bit porting by blueCAPE: http://www.bluecape.com.pt   *\
|  Based on Windows porting (2.0.x v4) by Symscape: http://www.symscape.com   |
\*---------------------------------------------------------------------------*/
FoamFile
{
    version     2.0;
    format      ascii;
    class       volScalarField;
    location    "0.001";
    object      p;
}
// * * * * * * * * * * * * * * * * * * * * * * * * * * * * * * * * * * * * * //

dimensions      [1 -1 -2 0 0 0 0];

internalField   nonuniform List<scalar> 
100
(
99973.6
98747.6
81482.4
19288.7
10993.4
10125.3
99981.4
99052.5
85737.8
23271.7
11498.7
10193.1
99984.7
99134.5
87527.5
25054.4
11803.1
10233.5
99986.9
99198.2
88699.4
26218
12000.4
10252.3
99988.4
99234.6
89534.8
27176.2
12220.3
10279.4
99990.8
99283.2
90570.5
28118.7
12377.6
10288.9
99988
99204.2
88862.1
27370
11954.4
10214
99987.6
99208.3
88781.1
25402.4
11635.7
10174.4
99987.1
99203.1
88352.7
24544
11528.6
10164.4
99987.1
99203.2
88325.2
24438.4
11516.8
10163.5
10043.7
10011.2
10034.7
10008.9
10028.7
10007.4
10027.2
10007
10027.1
10007
10000
10000
10000
10000.1
10000
10000
10000.3
10000
10000
10000.5
10000
10000
10000.8
10000
10000
10001.5
10000.1
10000
10001.5
10000.1
10000
10001.3
10000.1
10000
10001.3
10000.1
10000
10001.3
10000.1
10000
)
;

boundaryField
{
    inlet
    {
        type            zeroGradient;
    }
    outlet
    {
        type            zeroGradient;
    }
    bottom
    {
        type            symmetryPlane;
    }
    top
    {
        type            symmetryPlane;
    }
    obstacle
    {
        type            zeroGradient;
    }
    defaultFaces
    {
        type            empty;
    }
}


// ************************************************************************* //
