/*--------------------------------*- C++ -*----------------------------------*\
| =========                 |                                                 |
| \\      /  F ield         | OpenFOAM: The Open Source CFD Toolbox           |
|  \\    /   O peration     | Version:  5.x                                   |
|   \\  /    A nd           | Web:      www.OpenFOAM.org                      |
|    \\/     M anipulation  |                                                 |
\*---------------------------------------------------------------------------*/
/*   Windows 32 and 64 bit porting by blueCAPE: http://www.bluecape.com.pt   *\
|  Based on Windows porting (2.0.x v4) by Symscape: http://www.symscape.com   |
\*---------------------------------------------------------------------------*/
FoamFile
{
    version     2.0;
    format      ascii;
    class       surfaceScalarField;
    location    "0.001";
    object      phi;
}
// * * * * * * * * * * * * * * * * * * * * * * * * * * * * * * * * * * * * * //

dimensions      [1 0 -1 0 0 0 0];

internalField   nonuniform List<scalar> 
174
(
0.263014
-0.00155938
5.54393
0.859366
26.3049
6.91285
3.08855
8.81925
0.490552
1.81264
0.121753
0.126535
-0.00169246
3.10892
0.847415
17.7826
8.02517
2.35775
12.2277
0.417563
2.54702
0.197759
0.0743171
-0.00372886
2.02177
0.664168
12.6355
7.31988
1.7796
14.7044
0.337088
2.94971
0.250779
0.0429846
-0.00390958
1.26283
0.522862
8.48792
6.53931
1.25677
16.0035
0.239353
3.13449
0.282746
0.025352
-0.00297389
0.833003
0.395211
5.80729
5.97121
0.90302
16.8485
0.178709
3.24333
0.30359
0.0819093
0.0105415
3.03009
0.100378
21.5431
6.9645
2.90084
17.0504
0.489312
2.36527
0.191437
0.0448949
0.197923
0.00944714
5.66614
0.0948149
37.9686
6.57274
4.97243
10.2735
0.748805
1.10197
0.0735208
0.0574152
0.360581
0.00161882
10.1813
-0.00397545
68.4998
1.02572
8.23074
2.52485
1.18721
0.231172
0.0124667
0.0854432
0.655627
0.000246707
18.2464
0.000677213
121.367
0.185065
14.206
0.278395
2.04186
0.0249768
0.00116852
0.145312
1.16713
32.4627
215.833
25.1701
3.61925
0.257448
0.012468
0.00439908
0.00100987
0.00303734
0.0162635
0.00198647
0.00044831
0.00410454
0.0241596
0.000383771
8.64669e-005
0.00610247
0.0411665
3.66314e-005
7.75433e-006
0.0104215
0.072953
0.0184722
-1.22457e-006
-5.15499e-005
6.29829e-007
6.45514e-006
-9.99896e-007
-7.7322e-006
-0.000170716
1.444e-006
4.67437e-006
-2.28106e-006
-1.47784e-005
-0.000379987
2.51867e-006
-1.87262e-005
-3.35616e-006
-2.15364e-005
-0.000641654
2.9708e-006
-6.69089e-005
-3.93836e-006
-1.78778e-005
-0.000906176
3.21473e-006
-0.000124884
-3.95712e-006
0.000510151
-0.000142581
2.45761e-005
-2.14161e-005
-1.08967e-006
0.000709085
4.89068e-005
4.21328e-005
9.05952e-006
2.29441e-007
0.00106718
1.29529e-005
6.76571e-005
2.17293e-006
7.63351e-008
0.00182867
1.39315e-006
0.000116988
2.07428e-007
7.83623e-009
0.00324247
0.000207586
)
;

boundaryField
{
    inlet
    {
        type            calculated;
        value           nonuniform List<scalar> 10(-0.0081977 -0.0154114 -0.0271442 -0.0483139 -0.0859051 -0.0148283 -0.00810557 -0.0050869 -0.00320236 -0.00206291);
    }
    outlet
    {
        type            calculated;
        value           nonuniform List<scalar> 10(5.0917e-007 8.15348e-007 1.30142e-006 2.25374e-006 3.99997e-006 -6.66792e-009 -7.75322e-009 3.78409e-009 2.43528e-008 4.39702e-008);
    }
    bottom
    {
        type            symmetryPlane;
        value           uniform 0;
    }
    top
    {
        type            symmetryPlane;
        value           uniform 0;
    }
    obstacle
    {
        type            calculated;
        value           nonuniform List<scalar> 
12
(
0.0946799
0.0856687
0.0746877
0.0531522
0.0423819
5.39426e-006
1.90077e-005
3.48195e-005
4.75927e-005
4.27441e-005
-0.00165494
-0.000329124
)
;
    }
    defaultFaces
    {
        type            empty;
        value           nonuniform 0();
    }
}


// ************************************************************************* //
