/*--------------------------------*- C++ -*----------------------------------*\
| =========                 |                                                 |
| \\      /  F ield         | OpenFOAM: The Open Source CFD Toolbox           |
|  \\    /   O peration     | Version:  5.x                                   |
|   \\  /    A nd           | Web:      www.OpenFOAM.org                      |
|    \\/     M anipulation  |                                                 |
\*---------------------------------------------------------------------------*/
/*   Windows 32 and 64 bit porting by blueCAPE: http://www.bluecape.com.pt   *\
|  Based on Windows porting (2.0.x v4) by Symscape: http://www.symscape.com   |
\*---------------------------------------------------------------------------*/
FoamFile
{
    version     2.0;
    format      ascii;
    class       volScalarField;
    location    "0.001";
    object      T;
}
// * * * * * * * * * * * * * * * * * * * * * * * * * * * * * * * * * * * * * //

dimensions      [0 0 0 1 0 0 0];

internalField   nonuniform List<scalar> 
100
(
348.406
347.141
321.825
370.625
292.541
279.774
348.413
347.465
325.938
380.11
296.963
280.341
348.417
347.552
327.704
389.676
300.533
280.691
348.419
347.62
328.889
393.793
302.361
280.848
348.42
347.659
329.545
399.004
305.075
281.1
348.423
347.711
332.141
399.299
303.294
281.093
348.42
347.626
330.522
397.381
299.873
280.483
348.42
347.629
330.28
391.149
297.043
280.16
348.419
347.624
329.817
387.772
296.101
280.079
348.419
347.624
329.786
387.351
295.999
280.072
279.09
278.835
279.019
278.816
278.971
278.804
278.96
278.801
278.959
278.801
278.746
278.746
278.746
278.747
278.746
278.746
278.748
278.746
278.746
278.75
278.746
278.746
278.752
278.746
278.746
278.758
278.747
278.746
278.757
278.747
278.746
278.756
278.747
278.746
278.756
278.747
278.746
278.756
278.747
278.746
)
;

boundaryField
{
    inlet
    {
        type            zeroGradient;
    }
    outlet
    {
        type            zeroGradient;
    }
    bottom
    {
        type            symmetryPlane;
    }
    top
    {
        type            symmetryPlane;
    }
    obstacle
    {
        type            zeroGradient;
    }
    defaultFaces
    {
        type            empty;
    }
}


// ************************************************************************* //
