/*--------------------------------*- C++ -*----------------------------------*\
| =========                 |                                                 |
| \\      /  F ield         | OpenFOAM: The Open Source CFD Toolbox           |
|  \\    /   O peration     | Version:  5.x                                   |
|   \\  /    A nd           | Web:      www.OpenFOAM.org                      |
|    \\/     M anipulation  |                                                 |
\*---------------------------------------------------------------------------*/
/*   Windows 32 and 64 bit porting by blueCAPE: http://www.bluecape.com.pt   *\
|  Based on Windows porting (2.0.x v4) by Symscape: http://www.symscape.com   |
\*---------------------------------------------------------------------------*/
FoamFile
{
    version     2.0;
    format      ascii;
    class       volVectorField;
    location    "0.001";
    object      U;
}
// * * * * * * * * * * * * * * * * * * * * * * * * * * * * * * * * * * * * * //

dimensions      [0 1 -1 0 0 0 0];

internalField   nonuniform List<vector> 
100
(
(0.107466 0.0205779 0)
(2.98777 1.04701 0)
(39.5876 12.9452 0)
(177.521 64.5714 0)
(35.9681 16.8625 0)
(3.09113 1.67737 0)
(0.0863071 0.00427213 0)
(2.25622 0.392356 0)
(38.7936 3.55144 -3.62087e-018)
(177.109 37.0513 2.05664e-017)
(46.833 17.6981 0)
(4.4542 1.97804 2.87147e-017)
(0.0806169 0.00684208 0)
(1.94622 0.499043 0)
(38.5474 7.82357 0)
(175.961 52.7618 0)
(52.2997 25.0783 0)
(5.26052 3.25363 1.07977e-017)
(0.0756997 0.00483679 0)
(1.71464 0.348929 -1.30693e-018)
(38.4158 4.61831 1.86935e-018)
(176.244 51.6976 0)
(55.5805 24.0717 0)
(5.73117 3.31305 8.08948e-018)
(0.0728325 0.0061606 -3.78406e-019)
(1.51253 0.353283 5.23926e-019)
(38.2366 6.59698 0)
(176.035 60.6864 -2.54015e-018)
(58.6198 29.7727 6.64155e-018)
(6.33501 4.489 6.04177e-018)
(0.0682565 -0.00327833 0)
(1.25181 -0.105202 0)
(38.1917 -1.83856 0)
(186 26.3939 0)
(56.9211 8.33655 0)
(7.04787 1.07371 0)
(0.0730523 0.00453478 0)
(1.67938 0.0841753 0)
(38.8466 5.9185 0)
(190.514 32.6996 0)
(51.7623 9.96389 0)
(5.45422 1.12639 0)
(0.0724296 0.000519455 0)
(1.71821 -0.00480995 0)
(39.2896 0.500266 0)
(192.292 11.9383 0)
(47.1502 2.58902 0)
(4.6588 0.23385 0)
(0.0725947 0.000147596 0)
(1.76437 0.001058 0)
(39.4201 0.202476 0)
(192.511 1.71076 0)
(45.8002 0.343335 0)
(4.45007 0.0263913 0)
(0.0725866 4.69897e-006 0)
(1.76685 -2.09862e-005 0)
(39.4327 0.00594668 0)
(192.524 0.0888651 0)
(45.6654 0.0169391 0)
(4.43067 0.00112869 0)
(1.22159 0.084722 0)
(0.31 0.0187921 0)
(0.861484 0.109041 0)
(0.239179 0.02484 0)
(0.713227 0.0289186 0)
(0.20061 0.00676602 0)
(0.681292 0.0032803 0)
(0.192296 0.000738186 0)
(0.67876 0.000142852 0)
(0.191623 3.19345e-005 0)
(5.69938e-005 -0.000579389 1.12109e-016)
(5.61261e-005 5.84225e-005 -3.54522e-017)
(-8.67536e-007 -1.70304e-006 0)
(0.000198528 -0.00282832 8.10092e-017)
(0.000197179 0.000138334 1.28087e-017)
(-1.34689e-006 -4.87221e-006 -4.05046e-018)
(0.000540516 -0.00734695 0)
(0.000541447 0.000211109 0)
(9.39825e-007 -6.45424e-006 0)
(0.00104572 -0.014376 4.36501e-017)
(0.00105396 9.1279e-005 -6.90212e-018)
(8.25815e-006 -5.60231e-006 0)
(0.00164469 -0.0190847 1.61612e-017)
(0.00165817 6.9719e-005 0)
(2.13143e-005 5.69297e-007 0)
(0.0585511 -0.0105409 0)
(0.00303954 -0.000768505 0)
(5.63564e-005 -7.68483e-006 0)
(0.0446183 0.000763359 0)
(0.00299288 8.5095e-005 0)
(5.11856e-005 -1.82469e-008 0)
(0.0370326 0.00066844 0)
(0.00269186 3.7004e-005 0)
(4.56938e-005 3.91009e-007 0)
(0.0354999 9.88824e-005 0)
(0.00260346 5.06805e-006 0)
(4.4225e-005 6.47426e-008 0)
(0.035377 4.42684e-006 0)
(0.00259609 2.19413e-007 0)
(4.41068e-005 2.84268e-009 0)
)
;

boundaryField
{
    inlet
    {
        type            zeroGradient;
    }
    outlet
    {
        type            zeroGradient;
    }
    bottom
    {
        type            symmetryPlane;
    }
    top
    {
        type            symmetryPlane;
    }
    obstacle
    {
        type            zeroGradient;
    }
    defaultFaces
    {
        type            empty;
    }
}


// ************************************************************************* //
