/*--------------------------------*- C++ -*----------------------------------*\
| =========                 |                                                 |
| \\      /  F ield         | OpenFOAM: The Open Source CFD Toolbox           |
|  \\    /   O peration     | Version:  5.x                                   |
|   \\  /    A nd           | Web:      www.OpenFOAM.org                      |
|    \\/     M anipulation  |                                                 |
\*---------------------------------------------------------------------------*/
/*   Windows 32 and 64 bit porting by blueCAPE: http://www.bluecape.com.pt   *\
|  Based on Windows porting (2.0.x v4) by Symscape: http://www.symscape.com   |
\*---------------------------------------------------------------------------*/
FoamFile
{
    version     2.0;
    format      ascii;
    class       volScalarField;
    location    "0.0045";
    object      mag(U);
}
// * * * * * * * * * * * * * * * * * * * * * * * * * * * * * * * * * * * * * //

dimensions      [0 1 -1 0 0 0 0];

internalField   nonuniform List<scalar> 
100
(
6.00556
31.3784
113.787
236.383
314.396
287.718
6.00554
31.3791
113.778
236.43
314.216
286.095
6.00552
31.3797
113.768
236.49
314.028
285.791
6.0055
31.3803
113.76
236.543
313.883
290.729
6.00549
31.3806
113.755
236.583
313.754
301.159
6.00546
31.3815
113.742
236.659
313.239
312.458
6.00539
31.3837
113.709
236.772
312.427
309.756
6.00527
31.3874
113.651
236.873
311.337
306.012
6.00518
31.3899
113.604
236.926
310.682
303.515
6.00516
31.3907
113.59
236.939
310.47
302.624
287.738
266.283
284.151
257.044
280.298
251.437
277.804
248.856
277.02
248.465
28.1101
18.1077
1.58254
63.7202
29.5482
2.27019
98.3117
39.8775
3.07055
154.193
49.3943
3.71164
207.949
63.8674
4.20481
237.452
75.0399
4.87598
218.784
78.285
5.60916
211.117
82.5741
6.33735
209.533
85.8735
6.69396
209.765
86.9596
6.78921
)
;

boundaryField
{
    inlet
    {
        type            calculated;
        value           nonuniform List<scalar> 10(6.00546 6.00539 6.00527 6.00518 6.00516 6.00556 6.00554 6.00552 6.0055 6.00549);
    }
    outlet
    {
        type            calculated;
        value           nonuniform List<scalar> 10(4.87598 5.60916 6.33735 6.69396 6.78921 1.58254 2.27019 3.07055 3.71164 4.20481);
    }
    bottom
    {
        type            symmetryPlane;
    }
    top
    {
        type            symmetryPlane;
    }
    obstacle
    {
        type            calculated;
        value           nonuniform List<scalar> 
12
(
287.718
286.095
285.791
290.729
301.159
28.1101
63.7202
98.3117
154.193
207.949
287.738
266.283
)
;
    }
    defaultFaces
    {
        type            empty;
    }
}


// ************************************************************************* //
