/*--------------------------------*- C++ -*----------------------------------*\
| =========                 |                                                 |
| \\      /  F ield         | OpenFOAM: The Open Source CFD Toolbox           |
|  \\    /   O peration     | Version:  5.x                                   |
|   \\  /    A nd           | Web:      www.OpenFOAM.org                      |
|    \\/     M anipulation  |                                                 |
\*---------------------------------------------------------------------------*/
/*   Windows 32 and 64 bit porting by blueCAPE: http://www.bluecape.com.pt   *\
|  Based on Windows porting (2.0.x v4) by Symscape: http://www.symscape.com   |
\*---------------------------------------------------------------------------*/
FoamFile
{
    version     2.0;
    format      ascii;
    class       volScalarField;
    location    "0.0045";
    object      p;
}
// * * * * * * * * * * * * * * * * * * * * * * * * * * * * * * * * * * * * * //

dimensions      [1 -1 -2 0 0 0 0];

internalField   nonuniform List<scalar> 
100
(
98024
84963.2
62799.4
41275.2
36470
28434
98024
84963.3
62798.2
41282.5
36443.1
28339.8
98023.9
84963.4
62796.8
41289.5
36420.3
28259.4
98023.9
84963.4
62795.8
41295.4
36404.3
28210.1
98023.9
84963.5
62794.9
41300.1
36394.9
28184.5
98023.9
84963.6
62793.1
41310.9
36376.9
28168.7
98023.9
84963.9
62788
41342.1
36388.2
28156.7
98023.8
84964.5
62775.7
41424.5
36517.8
28445.1
98023.8
84965.1
62763.6
41527.9
36645.4
28685
98023.7
84965.3
62759.5
41568.1
36695.1
28792.5
25398.6
23637.5
25855.6
24406.5
26358.8
25077.8
26652.1
25515.8
26816.3
25714.8
13749.3
11103.1
10080.6
14490.9
11453.8
10095.5
15204.4
11860.8
10113.6
15742.4
12123.1
10129.8
16653.1
12252.6
10141.2
18962.5
12428.2
10162.4
20817.1
12808
10195.2
22004.3
13216
10229.2
22789.6
13453.1
10248.9
23078.2
13523.2
10254.5
)
;

boundaryField
{
    inlet
    {
        type            zeroGradient;
    }
    outlet
    {
        type            zeroGradient;
    }
    bottom
    {
        type            symmetryPlane;
    }
    top
    {
        type            symmetryPlane;
    }
    obstacle
    {
        type            zeroGradient;
    }
    defaultFaces
    {
        type            empty;
    }
}


// ************************************************************************* //
