/*--------------------------------*- C++ -*----------------------------------*\
| =========                 |                                                 |
| \\      /  F ield         | OpenFOAM: The Open Source CFD Toolbox           |
|  \\    /   O peration     | Version:  5.x                                   |
|   \\  /    A nd           | Web:      www.OpenFOAM.org                      |
|    \\/     M anipulation  |                                                 |
\*---------------------------------------------------------------------------*/
/*   Windows 32 and 64 bit porting by blueCAPE: http://www.bluecape.com.pt   *\
|  Based on Windows porting (2.0.x v4) by Symscape: http://www.symscape.com   |
\*---------------------------------------------------------------------------*/
FoamFile
{
    version     2.0;
    format      ascii;
    class       surfaceScalarField;
    location    "0.0045";
    object      phi;
}
// * * * * * * * * * * * * * * * * * * * * * * * * * * * * * * * * * * * * * //

dimensions      [1 0 -1 0 0 0 0];

internalField   nonuniform List<scalar> 
174
(
5.1915
0.000318892
15.8175
-0.00328859
24.3783
0.0497223
22.215
-0.316
18.1809
0.544751
-1.29017
3.47182
0.000498608
10.5774
-0.00514468
16.305
0.0792999
14.8412
-0.496021
12.0985
0.969972
-2.07
2.32179
0.000595858
7.07319
-0.00615964
10.9057
0.0958913
9.91445
-0.595887
8.08803
1.26696
-2.58685
1.55269
0.000648965
4.72996
-0.00671868
7.29418
0.105193
6.62445
-0.653379
5.47914
1.39534
-2.93686
1.03836
0.000678869
3.16303
-0.00703157
4.8784
0.110582
4.42734
-0.687018
3.74709
1.38951
-3.17402
4.4073
0.00075167
13.4245
-0.00794897
20.7139
0.122577
18.7625
-0.772077
16.296
0.938936
-2.9473
10.872
7.83784
0.000668866
23.8694
-0.007614
36.8506
0.114801
33.28
-0.755778
28.8216
0.436288
-2.26457
19.3895
13.9392
0.000312094
42.4391
-0.0041435
65.5651
0.0610927
59.0714
-0.455624
50.7111
0.169943
-1.192
34.6482
24.7893
7.48255e-005
75.4614
-0.00116945
116.652
0.0169443
105.028
-0.13844
89.4685
0.0358874
-0.317976
61.7078
44.083
134.188
207.478
186.786
158.463
109.933
10.4357
-1.02481
-1.10011
9.74169
18.2714
-0.780262
-0.90927
16.3937
32.2568
-0.400367
-0.467796
28.3922
57.4576
-0.117228
-0.131582
50.5513
102.488
90.2981
0.563894
-2.17836
0.281438
-2.05221
-0.254037
0.575073
-3.76205
0.239395
-3.72396
-0.450575
0.798127
-4.79977
0.205285
-4.7229
-0.602104
1.12835
-5.29225
0.192268
-4.75087
-0.68325
1.25843
-5.71797
0.199006
-4.26523
-0.676863
4.97362
-3.53797
1.07806
-3.12314
-0.512348
9.02681
-1.77791
2.11076
-1.72931
-0.306105
16.4509
-0.763776
4.07242
-0.638815
-0.121508
30.0074
-0.179732
7.61015
-0.129729
-0.0264452
53.9696
13.7362
)
;

boundaryField
{
    inlet
    {
        type            calculated;
        value           nonuniform List<scalar> 10(-0.953772 -1.69605 -3.01599 -5.3632 -9.53723 -1.12359 -0.751386 -0.50248 -0.336028 -0.224715);
    }
    outlet
    {
        type            calculated;
        value           nonuniform List<scalar> 10(0.0931671 0.197908 0.403598 0.760701 1.37252 0.0362574 0.032782 0.029109 0.0235281 0.01808);
    }
    bottom
    {
        type            symmetryPlane;
        value           uniform 0;
    }
    top
    {
        type            symmetryPlane;
        value           uniform 0;
    }
    obstacle
    {
        type            calculated;
        value           nonuniform List<scalar> 
12
(
13.5649
9.00237
6.00722
4.08352
2.81509
-0.423157
-0.463449
-0.742652
-1.12268
-1.24059
1.02299
1.02293
)
;
    }
    defaultFaces
    {
        type            empty;
        value           nonuniform 0();
    }
}


// ************************************************************************* //
