/*--------------------------------*- C++ -*----------------------------------*\
| =========                 |                                                 |
| \\      /  F ield         | OpenFOAM: The Open Source CFD Toolbox           |
|  \\    /   O peration     | Version:  5.x                                   |
|   \\  /    A nd           | Web:      www.OpenFOAM.org                      |
|    \\/     M anipulation  |                                                 |
\*---------------------------------------------------------------------------*/
/*   Windows 32 and 64 bit porting by blueCAPE: http://www.bluecape.com.pt   *\
|  Based on Windows porting (2.0.x v4) by Symscape: http://www.symscape.com   |
\*---------------------------------------------------------------------------*/
FoamFile
{
    version     2.0;
    format      ascii;
    class       volScalarField;
    location    "0.0045";
    object      T;
}
// * * * * * * * * * * * * * * * * * * * * * * * * * * * * * * * * * * * * * //

dimensions      [0 0 0 1 0 0 0];

internalField   nonuniform List<scalar> 
100
(
346.358
333.034
291.268
326.468
387.16
400.404
346.358
333.034
291.266
326.495
387.271
399.758
346.358
333.034
291.265
326.524
387.418
398.949
346.358
333.034
291.263
326.548
387.539
398.468
346.358
333.034
291.262
326.565
387.508
400.01
346.358
333.034
291.261
326.574
387.879
400.138
346.358
333.034
291.255
326.679
388.55
399.066
346.358
333.034
291.24
326.909
389.661
399.026
346.357
333.034
291.226
327.17
390.471
399.257
346.357
333.034
291.221
327.269
390.752
399.469
386.352
360.09
386.506
363.181
386.777
365.68
387.036
367.363
387.37
368.182
305.392
287.354
279.396
309.825
290.016
279.52
315.046
293.354
279.674
323.698
296.999
279.819
333.835
300.842
279.946
337.343
300.712
280.155
344.886
303.203
280.445
349.583
305.839
280.746
352.967
307.511
280.921
354.244
308.029
280.97
)
;

boundaryField
{
    inlet
    {
        type            zeroGradient;
    }
    outlet
    {
        type            zeroGradient;
    }
    bottom
    {
        type            symmetryPlane;
    }
    top
    {
        type            symmetryPlane;
    }
    obstacle
    {
        type            zeroGradient;
    }
    defaultFaces
    {
        type            empty;
    }
}


// ************************************************************************* //
