/*--------------------------------*- C++ -*----------------------------------*\
| =========                 |                                                 |
| \\      /  F ield         | OpenFOAM: The Open Source CFD Toolbox           |
|  \\    /   O peration     | Version:  5.x                                   |
|   \\  /    A nd           | Web:      www.OpenFOAM.org                      |
|    \\/     M anipulation  |                                                 |
\*---------------------------------------------------------------------------*/
/*   Windows 32 and 64 bit porting by blueCAPE: http://www.bluecape.com.pt   *\
|  Based on Windows porting (2.0.x v4) by Symscape: http://www.symscape.com   |
\*---------------------------------------------------------------------------*/
FoamFile
{
    version     2.0;
    format      ascii;
    class       volVectorField;
    location    "0.0045";
    object      U;
}
// * * * * * * * * * * * * * * * * * * * * * * * * * * * * * * * * * * * * * //

dimensions      [0 1 -1 0 0 0 0];

internalField   nonuniform List<vector> 
100
(
(6.00556 3.42999e-005 0)
(31.3784 -0.000543325 0)
(113.787 0.0132966 0)
(236.383 -0.20034 0)
(314.396 0.570686 0)
(287.703 -2.94125 0)
(6.00554 8.70253e-005 0)
(31.3791 -0.00137655 0)
(113.778 0.0342652 0)
(236.43 -0.50903 0)
(314.211 1.66321 0)
(286.005 -7.18284 0)
(6.00552 0.000115529 0)
(31.3797 -0.00182746 0)
(113.768 0.0462393 0)
(236.489 -0.678652 0)
(314.018 2.56203 0)
(285.622 -9.82199 0)
(6.0055 0.000131137 0)
(31.3803 -0.00207721 0)
(113.76 0.0529391 0)
(236.541 -0.773796 0)
(313.868 3.07314 0)
(290.484 -11.9457 0)
(6.00549 0.000139857 0)
(31.3806 -0.00221664 0)
(113.755 0.0568692 0)
(236.582 -0.831262 0)
(313.737 3.27067 0)
(300.871 -13.1631 0)
(6.00546 0.000153643 0)
(31.3815 -0.00245868 0)
(113.742 0.062577 0)
(236.657 -0.919502 0)
(313.227 2.69936 0)
(312.176 -13.2685 0)
(6.00539 0.000155543 0)
(31.3837 -0.0026503 0)
(113.709 0.0654873 0)
(236.77 -0.994818 0)
(312.424 1.4204 0)
(309.582 -10.3739 0)
(6.00527 9.61893e-005 0)
(31.3874 -0.00183892 0)
(113.651 0.0443161 0)
(236.872 -0.727401 0)
(311.336 0.508715 0)
(305.947 -6.31021 0)
(6.00518 2.60695e-005 0)
(31.3899 -0.000598595 0)
(113.604 0.0142049 0)
(236.926 -0.265792 0)
(310.682 0.100401 0)
(303.509 -1.93787 0)
(6.00516 3.30445e-006 0)
(31.3907 -8.49529e-005 0)
(113.59 0.00200157 0)
(236.939 -0.0400419 0)
(310.47 0.00905148 0)
(302.624 -0.297765 0)
(287.175 -17.9943 0)
(265.668 -18.079 0)
(283.758 -14.9329 0)
(256.45 -17.4686 0)
(280.165 -8.62416 0)
(251.246 -9.78466 0)
(277.79 -2.70282 0)
(248.837 -3.07688 0)
(277.02 -0.440917 0)
(248.465 -0.492387 0)
(14.398 -24.1428 0)
(16.435 -7.60119 0)
(1.55106 -0.314059 0)
(22.5756 -59.587 0)
(20.5091 -21.2714 0)
(2.09398 -0.876949 0)
(52.0713 -83.3893 0)
(25.7245 -30.4708 0)
(2.77478 -1.31485 0)
(116.457 -101.06 0)
(35.643 -34.1962 0)
(3.34558 -1.60728 0)
(187.466 -89.9945 0)
(55.3041 -31.9452 0)
(3.83502 -1.72425 0)
(229.636 -60.4187 0)
(70.8527 -24.7158 0)
(4.63853 -1.50308 0)
(216.686 -30.2278 0)
(77.1097 -13.5145 0)
(5.5253 -0.966321 0)
(210.707 -13.1464 0)
(82.3798 -5.66019 0)
(6.32172 -0.444804 0)
(209.501 -3.68499 0)
(85.8631 -1.3376 0)
(6.6931 -0.106889 0)
(209.764 -0.51937 0)
(86.9595 -0.167895 0)
(6.7892 -0.0130414 0)
)
;

boundaryField
{
    inlet
    {
        type            zeroGradient;
    }
    outlet
    {
        type            zeroGradient;
    }
    bottom
    {
        type            symmetryPlane;
    }
    top
    {
        type            symmetryPlane;
    }
    obstacle
    {
        type            zeroGradient;
    }
    defaultFaces
    {
        type            empty;
    }
}


// ************************************************************************* //
