/*--------------------------------*- C++ -*----------------------------------*\
| =========                 |                                                 |
| \\      /  F ield         | OpenFOAM: The Open Source CFD Toolbox           |
|  \\    /   O peration     | Version:  5.x                                   |
|   \\  /    A nd           | Web:      www.OpenFOAM.org                      |
|    \\/     M anipulation  |                                                 |
\*---------------------------------------------------------------------------*/
/*   Windows 32 and 64 bit porting by blueCAPE: http://www.bluecape.com.pt   *\
|  Based on Windows porting (2.0.x v4) by Symscape: http://www.symscape.com   |
\*---------------------------------------------------------------------------*/
FoamFile
{
    version     2.0;
    format      ascii;
    class       volScalarField;
    location    "0.001";
    object      mag(U);
}
// * * * * * * * * * * * * * * * * * * * * * * * * * * * * * * * * * * * * * //

dimensions      [0 1 -1 0 0 0 0];

internalField   nonuniform List<scalar> 
10000
(
3.42924e-012
2.25693e-012
7.47524e-012
2.59243e-012
2.78536e-012
3.50962e-012
3.82802e-012
3.18377e-012
3.11195e-012
2.44917e-013
3.26912e-012
3.32478e-011
5.02399e-010
8.73985e-009
1.12793e-007
1.59232e-006
1.66845e-005
0.000187379
0.00155651
0.0134423
0.0855977
0.52735
2.27947
8.78373
24.384
58.3907
109.418
159.908
217.057
275.274
331.587
370.099
351.922
232.424
56.9923
4.96595
1.00843
0.0138749
0.0498017
0.00831765
0.00291632
0.000608578
0.000146705
2.9577e-005
6.05638e-006
1.14015e-006
2.11292e-007
3.73e-008
6.44841e-009
1.07869e-009
1.72647e-010
3.01951e-011
2.47755e-012
1.69125e-012
2.64308e-012
6.43226e-013
4.34598e-012
3.75565e-012
1.7091e-012
2.56023e-012
4.00317e-012
1.60261e-012
5.31583e-012
3.87825e-012
2.06612e-012
2.41104e-012
1.00363e-012
2.25991e-012
2.58732e-012
7.69543e-013
2.87315e-012
2.46356e-011
3.35464e-010
6.47092e-009
7.71743e-008
1.19627e-006
1.18277e-005
0.000144297
0.00115662
0.0107334
0.0676495
0.446167
1.954
7.87714
22.2268
54.7084
104.994
159.222
214.854
269.172
319.21
348.743
326.612
221.29
62.4329
6.86099
1.25112
0.0567974
0.0485965
0.00456605
0.00234524
0.000387616
0.000103705
1.88941e-005
3.98204e-006
7.15647e-007
1.33441e-007
2.30469e-008
3.9866e-009
6.59837e-010
1.05054e-010
2.15067e-011
3.45841e-012
1.00353e-012
2.35096e-012
4.61982e-013
3.15356e-012
4.49637e-012
1.75317e-012
9.57456e-013
2.99465e-012
3.20045e-012
3.75434e-012
2.85005e-012
3.13716e-012
3.36782e-012
4.24659e-012
3.08265e-012
2.48726e-012
6.48423e-013
2.72521e-012
2.51846e-011
3.42344e-010
6.61483e-009
7.84452e-008
1.22049e-006
1.19503e-005
0.00014661
0.00116117
0.0108259
0.0674869
0.444358
1.93664
7.80806
22.0017
54.0993
103.219
159.291
208.073
255.873
301.17
328.969
310.557
217.396
66.2546
7.91317
1.3978
0.0828627
0.0531527
0.00439723
0.00259083
0.000445547
0.000123345
2.34473e-005
5.06788e-006
9.37971e-007
1.78373e-007
3.14096e-008
5.51213e-009
9.24235e-010
1.49606e-010
2.55112e-011
1.61032e-012
1.88095e-012
2.62683e-012
1.83603e-012
5.15686e-012
5.60341e-012
2.06989e-012
1.22095e-012
4.20782e-012
1.90556e-012
2.85969e-012
2.4966e-012
2.28105e-012
2.40372e-012
3.19148e-012
2.74056e-012
2.21231e-012
1.79113e-012
2.5749e-012
1.94268e-011
2.217e-010
5.09624e-009
5.25782e-008
9.4478e-007
8.37578e-006
0.000115236
0.000860299
0.00876281
0.0534802
0.380759
1.67637
7.09114
20.281
51.2222
99.5192
160.3
205.825
248.83
288.024
313.09
295.806
214.35
71.4255
9.4675
1.58628
0.147159
0.0532655
0.00132284
0.00233544
0.000299968
0.000101705
1.73911e-005
4.03546e-006
7.17824e-007
1.40627e-007
2.43931e-008
4.34202e-009
7.24077e-010
1.17814e-010
2.12359e-011
3.33292e-012
1.27927e-012
2.95688e-012
4.96806e-012
4.6703e-012
4.46335e-012
4.27304e-013
2.89904e-013
3.16189e-012
2.22246e-012
5.36293e-012
1.6299e-012
1.6968e-012
4.70232e-012
5.39836e-012
2.143e-012
2.08801e-012
1.52325e-012
2.26389e-012
2.02153e-011
2.25309e-010
5.2425e-009
5.32379e-008
9.70878e-007
8.42507e-006
0.000117925
0.000858657
0.00887605
0.052936
0.376876
1.64413
6.96771
19.9021
50.3315
97.5019
158.11
202.435
244.392
281.14
304.892
292.007
215.087
76.224
10.7229
1.78527
0.18467
0.0594715
0.000853292
0.00251277
0.000302597
0.000110899
1.85349e-005
4.42879e-006
7.76172e-007
1.5407e-007
2.64498e-008
4.73253e-009
7.82802e-010
1.274e-010
2.37684e-011
2.28765e-012
3.27016e-012
3.84835e-012
4.22228e-012
4.40986e-012
4.36753e-012
3.13551e-013
4.14482e-013
3.09992e-012
2.21545e-012
3.37559e-012
1.19218e-012
1.85846e-012
3.92066e-012
5.44631e-012
2.24905e-012
2.14901e-012
4.17497e-012
2.18726e-012
1.66669e-011
1.40952e-010
4.29645e-009
3.50369e-008
7.87631e-007
5.87515e-006
9.55769e-005
0.00063878
0.0073181
0.0422588
0.327073
1.43684
6.39859
18.5237
48.0027
94.539
155.442
200.504
242.712
280.378
304.797
296.604
221.226
83.1428
12.2566
2.00434
0.242029
0.0628158
0.00187314
0.00246236
0.00020145
0.000102331
1.47963e-005
3.93911e-006
6.49065e-007
1.34982e-007
2.253e-008
4.12068e-009
6.72381e-010
1.08521e-010
2.08093e-011
2.48007e-012
2.22836e-012
3.09995e-012
4.12546e-012
3.06671e-012
4.28305e-012
1.16844e-012
9.12418e-013
2.93535e-012
3.61315e-012
3.95073e-012
1.61781e-012
1.30274e-012
2.96995e-012
5.96097e-012
2.21899e-012
2.4866e-012
4.2096e-012
1.84793e-012
1.70683e-011
1.37976e-010
4.40242e-009
3.44908e-008
8.07745e-007
5.78533e-006
9.78515e-005
0.000627112
0.00741881
0.0413087
0.322062
1.39505
6.23807
18.0355
46.8829
92.32
151.997
197.113
240.924
281.786
309.525
304.365
227.189
90.1956
13.5995
2.24753
0.287201
0.0695827
0.00344671
0.00262859
0.000159743
0.00010488
1.34849e-005
3.92912e-006
6.09799e-007
1.32075e-007
2.13206e-008
3.97408e-009
6.35847e-010
1.03776e-010
1.81586e-011
3.62783e-012
2.54361e-012
4.77415e-012
1.73708e-012
3.68377e-012
5.05343e-012
3.65863e-013
5.13791e-013
2.44384e-012
4.14072e-012
3.35138e-012
1.44952e-012
2.45542e-012
3.55697e-012
4.34643e-012
3.9361e-012
2.03152e-012
4.96564e-012
1.63493e-012
1.52504e-011
7.98174e-011
3.8336e-009
2.18601e-008
6.89583e-007
4.00085e-006
8.23311e-005
0.000469977
0.00626066
0.0334279
0.28332
1.22955
5.78245
16.9237
44.9616
89.8459
149.435
195.012
239.989
283.14
314.17
311.516
232.454
98.82
15.2552
2.51008
0.342692
0.0757244
0.0054623
0.00274735
8.12267e-005
0.00010336
1.06483e-005
3.69893e-006
5.1812e-007
1.21117e-007
1.85406e-008
3.58695e-009
5.56693e-010
9.3637e-011
1.62879e-011
4.18779e-012
3.36483e-012
3.84661e-012
2.42143e-012
4.27002e-012
5.68333e-012
7.83716e-013
5.42701e-013
3.59429e-012
5.98091e-012
2.94976e-012
3.71133e-012
2.64104e-012
2.85816e-012
4.06805e-012
1.87659e-012
2.12513e-012
2.87956e-012
1.4806e-012
1.55721e-011
6.97951e-011
3.90896e-009
2.0091e-008
7.02924e-007
3.77135e-006
8.38499e-005
0.000449517
0.00631385
0.0321192
0.277846
1.18373
5.60549
16.387
43.7518
87.728
146.354
191.793
237.972
282.726
316.29
315.195
239.2
105.476
16.7385
2.79524
0.396264
0.0838161
0.00745723
0.00293385
3.04596e-005
0.000104169
8.22958e-006
3.59638e-006
4.4394e-007
1.1432e-007
1.63101e-008
3.31377e-009
4.93423e-010
8.57607e-011
1.40707e-011
3.99841e-012
3.00571e-012
4.50613e-012
1.43891e-012
3.55974e-012
5.17838e-012
1.29868e-012
3.31902e-013
2.32081e-012
6.42207e-012
2.90269e-012
3.29157e-012
9.42718e-013
3.32385e-012
5.48221e-012
2.41529e-012
1.72283e-012
4.54221e-012
1.93725e-012
1.49053e-011
3.01941e-011
3.583e-009
1.13734e-008
6.29803e-007
2.5382e-006
7.34869e-005
0.000338777
0.00548565
0.026369
0.247747
1.05209
5.23591
15.4776
42.1375
85.6533
144.399
189.997
236.488
281.135
315.168
314.863
250.143
111.884
18.3406
3.11395
0.456425
0.0926309
0.00965328
0.00312304
7.81088e-005
0.000105871
5.50799e-006
3.49049e-006
3.59305e-007
1.07041e-007
1.38287e-008
3.02766e-009
4.24257e-010
7.6398e-011
1.29436e-011
4.05791e-012
4.71188e-012
3.07802e-012
1.62795e-012
2.90239e-012
3.56851e-012
5.05491e-013
1.20901e-012
4.61223e-012
6.96496e-012
3.13913e-012
4.84382e-012
2.74908e-012
3.84977e-012
2.00319e-012
3.08957e-012
1.63257e-012
5.59743e-012
1.43551e-012
1.52675e-011
1.45844e-011
3.62405e-009
8.74553e-009
6.35477e-007
2.21162e-006
7.40411e-005
0.000312007
0.00548846
0.0248795
0.241966
1.00511
5.0563
14.9344
40.9286
83.6643
142.141
188.056
234.98
279.533
313.64
313.124
256.492
117.672
20.2334
3.46557
0.520794
0.102574
0.0119104
0.00335397
0.000152199
0.000109959
2.86583e-006
3.44362e-006
2.7599e-007
1.014e-007
1.14042e-008
2.78207e-009
3.58187e-010
6.97445e-011
1.05433e-011
2.26348e-012
2.43665e-012
1.65051e-012
1.32507e-012
3.05238e-012
3.25148e-012
1.60952e-012
8.90878e-013
3.24673e-012
6.69561e-012
3.94567e-012
3.68133e-012
8.78167e-013
2.31434e-012
3.29513e-012
2.67542e-012
2.22295e-012
4.51676e-012
1.34429e-012
1.4554e-011
2.1369e-011
3.4781e-009
3.44336e-009
5.95788e-007
1.3675e-006
6.75627e-005
0.000234039
0.00491035
0.0206943
0.218599
0.900705
4.75331
14.1827
39.544
81.8246
140.329
186.673
233.969
278.539
313.145
313.177
261.965
124.327
22.6988
3.86269
0.590607
0.113677
0.0142899
0.00362733
0.000233778
0.00011511
4.61811e-007
3.42967e-006
1.91323e-007
9.72884e-008
9.06935e-009
2.58488e-009
2.9555e-010
6.17861e-011
1.00968e-011
2.17592e-012
5.00633e-012
3.88754e-012
2.19856e-012
4.46532e-012
5.41125e-012
3.84795e-013
4.95209e-013
3.9283e-012
7.37236e-012
3.15454e-012
6.19504e-012
2.66881e-012
3.20152e-012
4.79313e-013
5.18355e-012
1.48884e-012
6.08753e-012
3.58161e-012
1.50527e-011
3.34472e-011
3.49303e-009
1.53363e-009
5.95067e-007
9.77856e-007
6.74172e-005
0.000203977
0.00487332
0.0191503
0.212895
0.854248
4.57754
13.6541
38.3677
79.9152
138.254
185.131
232.998
278.039
313.497
314.513
266.796
133.118
25.9241
4.2939
0.665814
0.125811
0.0168012
0.00392813
0.000320944
0.000120649
2.68329e-006
3.4699e-006
1.04258e-007
9.43685e-008
6.67807e-009
2.41662e-009
2.33861e-010
5.62423e-011
6.48017e-012
1.99585e-012
3.34659e-012
2.09852e-012
2.13099e-012
1.50496e-012
5.80072e-012
3.12352e-013
2.53614e-012
4.55936e-012
4.35184e-012
1.77384e-012
3.3697e-012
4.08899e-013
2.60665e-012
5.10968e-012
2.67822e-012
2.40372e-012
4.19798e-012
2.3242e-012
1.49524e-011
5.96355e-011
3.44785e-009
6.33936e-009
5.76153e-007
5.48066e-007
6.35343e-005
0.000150108
0.00448029
0.0160977
0.194945
0.770122
4.32622
13.0208
37.1438
78.1965
136.483
183.941
232.401
277.91
314.245
316.326
270.535
145.082
30.0514
4.7627
0.745251
0.139063
0.0193923
0.00427194
0.000409009
0.000128025
5.43628e-006
3.59381e-006
2.08511e-008
9.33083e-008
4.38239e-009
2.30458e-009
1.7611e-010
5.19318e-011
6.71277e-012
1.76771e-012
3.31662e-012
1.4642e-012
1.62228e-012
2.71809e-012
6.34194e-012
1.32779e-012
1.00368e-012
2.96491e-012
6.18692e-012
4.11663e-012
4.99885e-012
1.17575e-012
2.13744e-012
4.5938e-013
4.16381e-012
1.46043e-012
6.71189e-012
2.31566e-012
1.47178e-011
7.4666e-011
3.46762e-009
9.12875e-009
5.7353e-007
3.80223e-007
6.29565e-005
0.000119416
0.00441725
0.0145827
0.189499
0.726121
4.15964
12.5225
36.0262
76.3913
134.444
182.684
232.034
277.946
315.468
318.698
273.356
156.009
34.5319
5.28475
0.829523
0.153152
0.0221189
0.00464885
0.00050241
0.000136424
8.41325e-006
3.72611e-006
6.30882e-008
9.36458e-008
2.01221e-009
2.22722e-009
1.19102e-010
4.94894e-011
4.29542e-012
7.01345e-013
2.79395e-012
1.67491e-012
1.79883e-012
3.55689e-012
3.84792e-012
1.01176e-012
2.49106e-012
2.79729e-012
4.34236e-012
2.88693e-012
2.49324e-012
1.42731e-012
2.19445e-012
3.11267e-012
3.2391e-012
7.80609e-013
4.35149e-012
2.33706e-012
1.48174e-011
9.41549e-011
3.45796e-009
1.3086e-008
5.65751e-007
8.02619e-007
6.07297e-005
8.59883e-005
0.00415353
0.0123536
0.175875
0.658702
3.94787
11.9766
34.9202
74.7768
132.532
181.54
231.863
278.172
317.323
322.301
277.148
165.389
39.0537
5.85705
0.916654
0.168431
0.0249483
0.00507085
0.000598572
0.000146296
1.13637e-005
3.91674e-006
1.46351e-007
9.65936e-008
1.73115e-010
2.20458e-009
6.33327e-011
4.79642e-011
4.53297e-012
2.54182e-012
3.14015e-012
3.72364e-012
2.82722e-012
1.57971e-012
3.21636e-012
2.17048e-012
2.42852e-012
1.79279e-012
6.24194e-012
2.69241e-012
3.33096e-012
3.57257e-013
2.05006e-012
8.13263e-013
1.30012e-012
7.17733e-013
4.30229e-012
9.02184e-013
1.4648e-011
1.08867e-010
3.48635e-009
1.58449e-008
5.64051e-007
1.10608e-006
6.00272e-005
6.12852e-005
0.00407654
0.010935
0.170636
0.618316
3.79539
11.5153
33.8698
73.1064
130.414
180.213
231.741
278.651
319.517
327.108
282.792
174.258
43.6289
6.45354
1.00762
0.184465
0.027933
0.00552245
0.000699027
0.000157376
1.44488e-005
4.14275e-006
2.33476e-007
1.0006e-007
2.39617e-009
2.23739e-009
8.40528e-012
4.61384e-011
1.83121e-012
1.43029e-012
2.86871e-012
3.31802e-012
1.77036e-012
2.98252e-012
1.96244e-012
1.04951e-012
2.72424e-012
9.77045e-013
4.37098e-012
1.71709e-012
3.59104e-012
1.36644e-012
2.08195e-012
2.85381e-012
2.32745e-012
7.3217e-013
5.60007e-012
2.05132e-012
1.51339e-011
1.24058e-010
3.49724e-009
1.89826e-008
5.60045e-007
1.51258e-006
5.8721e-005
5.49033e-005
0.00389969
0.00930549
0.160357
0.566101
3.61452
11.0362
32.8577
71.5936
128.381
178.895
231.632
279.196
321.376
331.59
288.112
181.751
47.8385
7.06509
1.10283
0.201592
0.0310659
0.00602048
0.000803415
0.000170026
1.76207e-005
4.41371e-006
3.20238e-007
1.05217e-007
4.60146e-009
2.31468e-009
4.29702e-011
4.65697e-011
1.43482e-012
9.86611e-013
2.88286e-012
3.70977e-012
2.39478e-012
1.5024e-012
2.06895e-012
8.54439e-013
2.10045e-012
1.19498e-012
5.20777e-012
3.59376e-012
3.43576e-012
2.76816e-013
1.99275e-012
2.01751e-012
2.78094e-012
1.00605e-012
5.28192e-012
6.48201e-013
1.49526e-011
1.37123e-010
3.52731e-009
2.14659e-008
5.59981e-007
1.82043e-006
5.81214e-005
5.56491e-005
0.00382061
0.00805532
0.155369
0.529767
3.47838
10.6144
31.8794
70.0427
126.22
177.469
231.356
279.579
322.605
335.255
292.623
187.486
51.6584
7.67304
1.20306
0.219427
0.0343794
0.00654951
0.000912605
0.000183721
2.08903e-005
4.72544e-006
4.09834e-007
1.11226e-007
6.83527e-009
2.41581e-009
9.52084e-011
4.81516e-011
1.40001e-012
8.87934e-013
2.64617e-012
5.21728e-012
1.62465e-012
2.8594e-012
2.16934e-012
1.11728e-012
1.63471e-012
1.3425e-012
6.02267e-012
3.02662e-012
4.42391e-012
2.05134e-012
2.4527e-012
2.81852e-012
2.17068e-012
4.47342e-013
3.84708e-012
1.75568e-013
1.5327e-011
1.49701e-010
3.54692e-009
2.39986e-008
5.58579e-007
2.15693e-006
5.73685e-005
7.59147e-005
0.00369869
0.00687777
0.147591
0.48854
3.32378
10.1907
30.9515
68.61
124.127
176.06
230.724
279.591
323.032
337.712
296.541
192.294
55.1333
8.28399
1.30889
0.238307
0.0378868
0.00712207
0.00102634
0.000198998
2.42599e-005
5.08455e-006
5.00905e-007
1.18699e-007
9.09626e-009
2.55662e-009
1.47502e-010
5.13527e-011
1.49417e-012
1.27179e-012
2.32537e-012
4.34842e-012
2.82642e-012
1.34722e-012
2.03958e-012
8.12429e-013
1.49556e-012
9.23752e-013
4.14032e-012
2.75357e-012
3.50561e-012
1.31111e-012
2.77641e-012
2.70826e-012
3.8009e-012
2.57039e-012
3.44415e-012
6.67271e-013
1.57022e-011
1.60383e-010
3.57387e-009
2.613e-008
5.5911e-007
2.4318e-006
5.68542e-005
9.44546e-005
0.00362531
0.00587516
0.142983
0.45607
3.20217
9.80957
30.0524
67.1714
121.998
174.63
229.459
278.826
322.486
339.063
300.402
196.872
58.3516
8.88994
1.41974
0.257911
0.041581
0.00772419
0.00114492
0.000215282
2.77444e-005
5.47645e-006
5.94479e-007
1.27246e-007
1.14023e-008
2.72202e-009
2.00449e-010
5.39024e-011
3.1092e-012
6.20451e-013
2.31215e-012
3.63e-012
2.31924e-012
3.01459e-012
2.6285e-012
4.92148e-013
1.82522e-012
1.58345e-012
4.59932e-012
3.01396e-012
3.48588e-012
1.79802e-012
1.85191e-012
2.30889e-012
2.38673e-012
1.97805e-012
3.897e-012
6.54724e-013
1.57003e-011
1.7061e-010
3.59402e-009
2.81723e-008
5.58819e-007
2.70319e-006
5.62691e-005
0.000115102
0.00353723
0.00508632
0.137033
0.422639
3.0707
9.43561
29.2057
65.847
119.96
173.3
227.415
276.831
320.611
339.295
303.632
201.254
61.4238
9.50316
1.53723
0.278687
0.0454864
0.00836983
0.00126885
0.000233038
3.13513e-005
5.91608e-006
6.90602e-007
1.37067e-007
1.37577e-008
2.926e-009
2.53672e-010
5.79722e-011
3.50967e-012
1.11274e-012
2.10854e-012
4.09607e-012
1.79173e-012
1.78358e-012
1.62826e-012
1.06603e-012
1.41439e-012
1.94889e-012
2.11306e-012
1.89919e-012
4.02214e-012
2.0892e-012
2.12684e-012
3.92165e-012
2.26132e-012
2.96571e-012
3.8448e-012
6.83599e-013
1.56254e-011
1.79415e-010
3.61501e-009
2.9938e-008
5.59298e-007
2.93616e-006
5.58331e-005
0.000132816
0.00347331
0.00443156
0.132919
0.39426
2.9627
9.09554
28.3854
64.5473
117.943
172.117
224.555
273.27
317.075
338.46
305.923
205.027
64.3454
10.1191
1.66078
0.300144
0.0495658
0.00904248
0.00139721
0.000251786
3.50672e-005
6.38634e-006
7.89254e-007
1.47863e-007
1.61697e-008
3.15284e-009
3.0858e-010
6.22313e-011
5.54472e-012
1.02527e-012
1.57718e-012
4.9769e-012
2.4789e-012
2.61809e-012
1.77698e-012
4.4299e-013
1.15063e-012
1.37764e-012
3.29913e-012
3.71707e-012
2.68924e-012
1.33187e-012
1.98591e-012
3.95251e-012
1.87873e-012
3.24623e-012
3.48643e-012
4.42044e-013
1.59126e-011
1.87571e-010
3.63039e-009
3.15671e-008
5.59206e-007
3.15563e-006
5.53823e-005
0.000150699
0.00340654
0.0040565
0.128278
0.366766
2.85033
8.76674
27.611
63.3449
116.008
171.252
221.266
268.381
311.98
336.572
307.608
208.577
67.3095
10.76
1.79272
0.322739
0.0538834
0.00975863
0.00153193
0.00027199
3.89411e-005
6.90168e-006
8.91522e-007
1.59911e-007
1.86578e-008
3.41443e-009
3.64318e-010
6.75707e-011
6.15656e-012
2.60022e-012
2.32078e-012
2.79749e-012
2.51935e-012
2.21471e-012
1.75484e-012
6.01876e-013
1.64482e-012
1.05833e-012
2.20737e-012
1.3805e-012
3.98865e-012
3.84066e-013
1.87579e-012
3.99661e-012
1.16918e-012
2.5679e-012
3.7033e-012
1.25947e-012
1.58973e-011
1.94261e-010
3.64289e-009
3.29854e-008
5.59275e-007
3.34804e-006
5.50129e-005
0.000166502
0.00335165
0.00384148
0.12467
0.342401
2.75422
8.46482
26.8604
62.172
114.098
170.69
218.266
263.292
306.219
333.564
308.358
211.695
70.3024
11.4201
1.93077
0.345856
0.0583548
0.0104983
0.00167067
0.000293082
4.29166e-005
7.44556e-006
9.96197e-007
1.72794e-007
2.12056e-008
3.69835e-009
4.22755e-010
7.3423e-011
7.5277e-012
2.20059e-012
2.39041e-012
2.35415e-012
3.67699e-012
3.0535e-012
2.1349e-012
7.24587e-013
2.29256e-012
1.54131e-012
3.29729e-012
1.76343e-012
3.64592e-012
7.00969e-013
1.60986e-012
3.74959e-012
1.70308e-012
3.12171e-012
3.71351e-012
9.03118e-013
1.57792e-011
2.00028e-010
3.651e-009
3.42566e-008
5.5888e-007
3.52449e-006
5.46442e-005
0.000181627
0.00329761
0.00386094
0.120939
0.31961
2.65737
8.17551
26.15
61.0681
112.27
170.186
216.213
259.257
301.358
330.019
307.616
214.003
73.5066
12.1119
2.07786
0.370087
0.0630899
0.0112839
0.0018168
0.000315706
4.70835e-005
8.03429e-006
1.10552e-006
1.86912e-007
2.3857e-008
4.01478e-009
4.83233e-010
7.99896e-011
8.02111e-012
1.67625e-012
1.44813e-012
2.61996e-012
5.05687e-012
2.20715e-012
1.26866e-012
1.15255e-012
1.63921e-012
1.60511e-012
2.7629e-012
1.72691e-012
4.25877e-012
7.15414e-013
1.54648e-012
4.37854e-012
2.14858e-012
2.92556e-012
4.08147e-012
3.0362e-013
1.55054e-011
2.04439e-010
3.65397e-009
3.53552e-008
5.58332e-007
3.68016e-006
5.43174e-005
0.000195284
0.00325073
0.00399387
0.117792
0.298979
2.57185
7.90785
25.4651
59.9897
110.505
169.665
215.043
256.254
297.323
326.269
305.845
215.746
76.6441
12.8127
2.22998
0.394563
0.0679492
0.0120877
0.00196619
0.00033906
5.13351e-005
8.64703e-006
1.2169e-006
2.01723e-007
2.65618e-008
4.34938e-009
5.44656e-010
8.71598e-011
9.47056e-012
1.87414e-012
2.02583e-012
2.59698e-012
5.23367e-012
2.99701e-012
1.69817e-012
8.6305e-013
7.69229e-013
1.58959e-012
3.40578e-012
2.89947e-012
2.34008e-012
1.15693e-012
1.54826e-012
5.13165e-012
2.65217e-012
4.31328e-012
2.47117e-012
4.89849e-013
1.58668e-011
2.08464e-010
3.65305e-009
3.63126e-008
5.57339e-007
3.82007e-006
5.39907e-005
0.000208059
0.00320728
0.00425773
0.114701
0.280057
2.48772
7.65296
24.8173
58.9636
108.818
169.204
214.41
253.962
293.734
322.317
303.284
217.311
79.8275
13.5431
2.39056
0.42025
0.0731048
0.0129425
0.00212423
0.000364079
5.58176e-005
9.30708e-006
1.334e-006
2.17794e-007
2.94e-008
4.7161e-009
6.08585e-010
9.55309e-011
1.0763e-011
2.21854e-012
6.37197e-013
3.06378e-012
5.43079e-012
1.07696e-012
1.54388e-012
8.13923e-013
8.81698e-013
1.36279e-012
2.22063e-012
1.98096e-012
3.34854e-012
9.33832e-013
1.42471e-012
4.1925e-012
1.32063e-012
4.00185e-012
3.26819e-012
1.54701e-012
1.54825e-011
2.11308e-010
3.64639e-009
3.71243e-008
5.56025e-007
3.94282e-006
5.36759e-005
0.000219593
0.00316876
0.00460061
0.111957
0.262829
2.41157
7.41576
24.1971
57.9659
107.199
168.771
213.969
252.008
290.358
318.213
300.315
218.825
82.9503
14.2904
2.55204
0.446101
0.0783229
0.0138082
0.0022841
0.000389593
6.03516e-005
9.98419e-006
1.45247e-006
2.34377e-007
3.22744e-008
5.09691e-009
6.73655e-010
1.03773e-010
1.19043e-011
2.15723e-012
4.34787e-013
3.02031e-012
4.73286e-012
1.35737e-012
1.41099e-012
1.03212e-012
7.17064e-013
1.56102e-012
2.62888e-012
2.6298e-012
2.71146e-012
1.82026e-012
1.62097e-012
4.02131e-012
2.86288e-012
4.35895e-012
2.27888e-012
1.09107e-012
1.58056e-011
2.13898e-010
3.63659e-009
3.78059e-008
5.54263e-007
4.05085e-006
5.33517e-005
0.000230073
0.00313175
0.00502255
0.109331
0.247198
2.33794
7.19021
23.6106
57.0112
105.655
168.378
213.535
250.208
287.101
314.009
297.628
220.378
86.0486
15.0859
2.71972
0.473713
0.0838601
0.014735
0.00245429
0.000417015
6.51689e-005
1.07143e-005
1.57801e-006
2.52322e-007
3.53159e-008
5.51086e-009
7.42424e-010
1.13358e-010
1.37563e-011
2.2469e-012
9.79669e-013
3.23665e-012
3.55242e-012
1.16528e-012
9.42568e-013
1.20299e-012
9.10714e-013
1.59061e-012
1.77664e-012
1.48302e-012
3.66445e-012
1.14317e-012
1.81671e-012
3.15896e-012
1.92236e-012
4.11167e-012
2.46752e-012
5.03521e-013
1.53245e-011
2.15078e-010
3.62117e-009
3.83629e-008
5.52106e-007
4.14423e-006
5.30218e-005
0.000239424
0.00309576
0.00547797
0.106935
0.233007
2.27025
6.97892
23.052
56.0859
104.176
168.03
213.143
248.692
284.127
309.957
295.966
222.216
89.1407
15.8988
2.88425
0.501442
0.0893523
0.0156623
0.00262399
0.000444567
6.99824e-005
1.14512e-005
1.70359e-006
2.70516e-007
3.83634e-008
5.93275e-009
8.12122e-010
1.21449e-010
1.48343e-011
2.62979e-012
6.16738e-013
3.49562e-012
2.64078e-012
1.03411e-012
1.5673e-012
1.62484e-012
1.77364e-012
2.33777e-012
1.54601e-012
2.57075e-012
3.51919e-012
1.70778e-012
1.21299e-012
2.25361e-012
2.57961e-012
4.06109e-012
9.46887e-013
6.45219e-013
1.54285e-011
2.16534e-010
3.60234e-009
3.8805e-008
5.49511e-007
4.22446e-006
5.26777e-005
0.000247753
0.00305973
0.00592015
0.104673
0.220237
2.20561
6.77765
22.5237
55.1953
102.754
167.684
212.731
247.561
281.631
306.374
295.217
224.349
92.4008
16.7715
3.05727
0.53147
0.0952196
0.0166669
0.00280649
0.00047445
7.51555e-005
1.22514e-005
1.83822e-006
2.90297e-007
4.1624e-008
6.39249e-009
8.86023e-010
1.31735e-010
1.72074e-011
2.59666e-012
2.17946e-012
2.46812e-012
2.76871e-012
1.44698e-012
1.97651e-012
3.37199e-013
7.93149e-013
1.50002e-012
7.34149e-013
1.30932e-012
3.966e-012
5.5679e-013
1.34578e-012
2.0479e-012
1.70201e-012
3.52392e-012
1.49384e-012
7.26204e-013
1.50773e-011
2.16599e-010
3.57848e-009
3.914e-008
5.46509e-007
4.29218e-006
5.23215e-005
0.000255097
0.00302409
0.00630432
0.102579
0.208747
2.14559
6.58841
22.0227
54.3343
101.402
167.208
212.208
246.863
279.901
303.704
294.767
225.991
95.515
17.6466
3.22598
0.561064
0.100926
0.0176538
0.00298503
0.000503887
8.02334e-005
1.30425e-005
1.97062e-006
3.09925e-007
4.48362e-008
6.8501e-009
9.59353e-010
1.41211e-010
1.83727e-011
3.75316e-012
9.72611e-013
1.68523e-012
2.2214e-012
1.91748e-012
2.6294e-012
1.07292e-012
9.65387e-013
2.00752e-012
1.62254e-012
2.38042e-012
3.25952e-012
8.63191e-013
1.31836e-012
2.02919e-012
1.80986e-012
4.39177e-012
5.23172e-013
7.71262e-013
1.49967e-011
2.17059e-010
3.55133e-009
3.93753e-008
5.43095e-007
4.34849e-006
5.19507e-005
0.000261565
0.00298919
0.00663435
0.100611
0.198503
2.08866
6.40771
21.5476
53.5015
100.108
166.57
211.614
246.611
279.256
302.308
295.077
227.587
98.5514
18.5866
3.40702
0.593512
0.107135
0.0187403
0.00318045
0.000536329
8.57895e-005
1.39145e-005
2.11509e-006
3.31549e-007
4.83318e-008
7.35435e-009
1.03901e-009
1.52633e-010
2.04494e-011
3.1432e-012
2.01207e-012
1.29563e-012
2.09984e-012
2.81802e-012
1.87979e-012
1.47996e-012
1.07525e-012
1.86701e-012
1.46992e-012
1.36358e-012
3.83863e-012
5.23268e-013
1.50262e-012
3.27555e-012
5.32356e-013
3.99185e-012
1.80275e-012
7.984e-013
1.43622e-011
2.16045e-010
3.51983e-009
3.95196e-008
5.39294e-007
4.39415e-006
5.15666e-005
0.000267232
0.00295542
0.00693163
0.0987744
0.189401
2.0354
6.23794
21.0988
52.7008
98.8745
165.745
210.97
246.677
279.744
302.367
296.532
229.737
101.595
19.5341
3.57958
0.624682
0.113022
0.0197786
0.00336662
0.000567406
9.11017e-005
1.47525e-005
2.25353e-006
3.52389e-007
5.16884e-008
7.84163e-009
1.1159e-009
1.62981e-010
2.16668e-011
3.86167e-012
1.091e-012
1.38843e-012
1.85795e-012
2.90554e-012
9.80404e-013
2.79678e-012
1.1974e-012
3.46077e-012
1.76425e-012
3.1898e-012
3.35482e-012
6.49902e-013
1.7125e-012
1.85224e-012
2.97757e-012
3.45946e-012
7.38359e-013
9.65711e-013
1.51506e-011
2.15659e-010
3.48567e-009
3.95803e-008
5.35124e-007
4.4301e-006
5.11691e-005
0.000272178
0.00292279
0.00720758
0.0970506
0.181386
1.98503
6.07507
20.6707
51.9255
97.6722
164.749
210.287
246.854
280.994
303.726
299.193
232.74
104.97
20.5947
3.76964
0.659688
0.119605
0.0209511
0.00357614
0.000602572
9.70806e-005
1.57008e-005
2.40891e-006
3.75936e-007
5.54423e-008
8.39107e-009
1.20125e-009
1.75269e-010
2.3655e-011
3.79543e-012
1.22657e-012
1.38623e-012
3.45876e-012
3.00083e-012
1.28619e-012
2.12465e-012
1.12284e-012
2.95512e-012
1.07247e-012
2.09483e-012
2.86755e-012
9.6816e-013
2.1238e-012
3.75377e-012
4.71569e-013
4.39581e-012
3.33253e-012
4.34398e-013
1.43291e-011
2.1363e-010
3.44718e-009
3.95635e-008
5.30604e-007
4.45699e-006
5.07579e-005
0.00027646
0.0028912
0.00746567
0.0954323
0.174396
1.93761
5.92313
20.2682
51.1884
96.5081
163.686
209.599
246.975
282.426
305.94
302.638
236.261
108.543
21.6525
3.94561
0.692073
0.125615
0.0220282
0.00376812
0.000634914
0.000102574
1.65747e-005
2.55195e-006
3.9768e-007
5.8903e-008
8.8994e-009
1.28013e-009
1.86741e-010
2.56437e-011
4.40027e-012
1.21611e-012
1.28569e-012
2.96365e-012
2.25351e-012
1.59697e-012
3.32708e-012
8.51733e-013
4.19384e-012
1.22897e-012
4.25781e-012
3.67454e-012
1.24875e-012
2.61715e-012
2.35368e-012
3.29181e-012
2.5102e-012
1.30744e-012
1.13952e-012
1.47287e-011
2.12483e-010
3.40677e-009
3.94786e-008
5.2578e-007
4.47587e-006
5.03364e-005
0.000280155
0.00286072
0.00770709
0.0939144
0.168347
1.89283
5.77599
19.8795
50.4747
95.3481
162.63
208.905
246.928
283.522
308.345
306.09
239.857
112.432
22.8467
4.14809
0.729753
0.132629
0.0232942
0.00399366
0.000673099
0.000109038
1.76077e-005
2.7199e-006
4.23344e-007
6.29513e-008
9.49735e-009
1.37217e-009
2.00295e-010
2.80884e-011
4.31325e-012
1.49969e-012
1.45278e-012
3.84777e-012
1.97909e-012
1.77453e-012
2.33372e-012
1.00311e-012
4.5116e-012
1.66805e-013
2.21451e-012
2.93606e-012
1.02832e-012
1.8947e-012
4.66338e-012
1.33221e-012
2.44876e-012
3.35123e-012
1.38292e-012
1.37937e-011
2.0969e-010
3.36279e-009
3.93279e-008
5.2063e-007
4.48685e-006
4.98991e-005
0.000283265
0.00283083
0.00793124
0.0924725
0.1632
1.85037
5.64101
19.5171
49.8059
94.2328
161.584
208.138
246.627
284.017
310.313
308.859
242.978
116.301
23.9578
4.32681
0.762735
0.13869
0.0243922
0.00418864
0.000706149
0.000114625
1.85012e-005
2.86503e-006
4.45527e-007
6.64488e-008
1.00146e-008
1.45144e-009
2.11878e-010
2.98536e-011
4.79281e-012
6.16765e-013
1.39383e-012
2.87531e-012
2.42896e-012
1.11695e-012
2.99456e-012
1.13343e-012
4.70352e-012
2.0757e-013
3.35487e-012
3.79284e-012
7.37822e-013
3.05326e-012
2.57368e-012
3.20533e-012
2.0894e-012
1.66478e-012
5.07924e-013
1.42354e-011
2.07968e-010
3.31748e-009
3.91254e-008
5.1528e-007
4.49182e-006
4.94596e-005
0.000285942
0.00280227
0.00814101
0.0911296
0.158817
1.81043
5.50754
19.1601
49.1544
93.121
160.551
207.309
246.084
283.91
311.499
310.651
245.503
120.083
25.2087
4.54531
0.803387
0.146229
0.0257656
0.00443329
0.000747865
0.000121673
1.96346e-005
3.04833e-006
4.73699e-007
7.0858e-008
1.06698e-008
1.55173e-009
2.26468e-010
3.23024e-011
4.80531e-012
1.97301e-012
1.81925e-012
3.18888e-012
2.08878e-012
1.13988e-012
2.31524e-012
1.41749e-012
5.61256e-012
6.17616e-014
1.75128e-012
3.38346e-012
1.27323e-012
1.31751e-012
3.6113e-012
2.26756e-012
1.28248e-012
2.94972e-012
8.51563e-013
1.35025e-011
2.04637e-010
3.26877e-009
3.88633e-008
5.09571e-007
4.48914e-006
4.89948e-005
0.000288025
0.0027733
0.00833013
0.0898156
0.155197
1.77207
5.38896
18.8325
48.5547
92.0684
159.565
206.481
245.391
283.329
311.878
311.501
247.743
123.195
26.2454
4.72306
0.836275
0.152234
0.0268593
0.00462685
0.000780768
0.00012721
2.05214e-005
3.19136e-006
4.95592e-007
7.42791e-008
1.1177e-008
1.62871e-009
2.37347e-010
3.38778e-011
5.4323e-012
7.65465e-013
1.8037e-012
2.40725e-012
1.51795e-012
1.29675e-012
2.37679e-012
1.26007e-012
5.31867e-012
3.15057e-013
2.20924e-012
3.83362e-012
9.38881e-013
1.95127e-012
2.39096e-012
4.85622e-012
2.29278e-012
8.73603e-013
4.70116e-013
1.33963e-011
2.02275e-010
3.22026e-009
3.85722e-008
5.03878e-007
4.48362e-006
4.85506e-005
0.000289936
0.00274684
0.00851211
0.0886305
0.152172
1.73645
5.26661
18.5005
47.9605
91.0222
158.608
205.698
244.619
282.451
311.624
311.637
250.319
126.124
27.4881
4.95857
0.880564
0.160439
0.0283641
0.00489548
0.000826885
0.000135005
2.17825e-005
3.39474e-006
5.27002e-007
7.91682e-008
1.19069e-008
1.73979e-009
2.53468e-010
3.60212e-011
5.25693e-012
1.34466e-012
1.98307e-012
2.14459e-012
1.46628e-012
9.33476e-013
1.97753e-012
1.10752e-012
5.07456e-012
4.97225e-013
1.52889e-012
2.90878e-012
8.08047e-013
1.81635e-012
4.16124e-012
2.96583e-012
1.51283e-012
2.43842e-012
7.28519e-013
1.26541e-011
1.98453e-010
3.16733e-009
3.82112e-008
4.97596e-007
4.46822e-006
4.80483e-005
0.000291031
0.0027175
0.00866236
0.0873784
0.149785
1.70133
5.16427
18.204
47.4269
90.0585
157.701
204.958
243.806
281.397
310.93
311.32
253.313
128.782
28.404
5.12846
0.912563
0.166224
0.0294166
0.00508067
0.000858309
0.000140256
2.26208e-005
3.52868e-006
5.47415e-007
8.23237e-008
1.23728e-008
1.80916e-009
2.63867e-010
3.75341e-011
5.90189e-012
1.34106e-012