/*--------------------------------*- C++ -*----------------------------------*\
| =========                 |                                                 |
| \\      /  F ield         | OpenFOAM: The Open Source CFD Toolbox           |
|  \\    /   O peration     | Version:  5.x                                   |
|   \\  /    A nd           | Web:      www.OpenFOAM.org                      |
|    \\/     M anipulation  |                                                 |
\*---------------------------------------------------------------------------*/
/*   Windows 32 and 64 bit porting by blueCAPE: http://www.bluecape.com.pt   *\
|  Based on Windows porting (2.0.x v4) by Symscape: http://www.symscape.com   |
\*---------------------------------------------------------------------------*/
FoamFile
{
    version     2.0;
    format      ascii;
    class       surfaceScalarField;
    location    "0.001";
    object      phi;
}
// * * * * * * * * * * * * * * * * * * * * * * * * * * * * * * * * * * * * * //

dimensions      [1 0 -1 0 0 0 0];

internalField   nonuniform List<scalar> 
19740
(
4.40099e-014
2.10498e-013
-1.88582e-014
2.28262e-013
-4.92228e-014
-5.47118e-013
9.20965e-015
1.533e-012
3.94528e-014
1.24345e-013
1.75034e-014
-3.74811e-013
-3.41151e-014
-5.69322e-013
-5.65988e-014
-6.15508e-013
-3.13707e-014
-1.1724e-013
2.95458e-014
1.32783e-013
3.3948e-013
3.26406e-013
4.96664e-012
-7.23865e-014
8.58328e-011
-2.63789e-012
1.14357e-009
-3.24021e-011
1.6065e-008
-3.01728e-010
1.74347e-007
-3.97723e-009
1.95085e-006
-3.87109e-008
1.68663e-005
-3.49705e-007
0.000145589
-3.18322e-006
0.00097416
-1.88868e-005
0.00609573
-8.34807e-005
0.0303352
-0.000983434
0.122872
-0.00664444
0.372671
-0.0251156
0.858576
-0.0616776
1.56615
-0.127044
2.16982
-0.109904
2.51311
-0.0173829
2.50856
-0.169029
2.35443
-0.361576
2.17766
-0.244475
2.15066
-0.0063321
1.71713
0.301661
0.438041
0.380446
0.0795936
0.235863
0.00781793
0.0213589
0.0012253
0.00159973
6.90176e-005
0.00027093
4.75895e-005
2.02277e-005
-6.27097e-006
-8.27493e-006
2.73242e-006
4.90574e-006
-5.62032e-007
-1.44017e-006
1.44289e-007
4.01236e-007
-2.94755e-008
-9.4423e-008
6.23162e-009
2.10766e-008
-1.19135e-009
-4.31758e-009
2.25255e-010
8.45808e-010
-4.0288e-011
-1.56971e-010
7.06473e-012
2.81061e-011
-1.19958e-012
-4.83881e-012
1.90633e-013
8.1192e-013
-3.64075e-014
-1.40304e-013
5.41928e-015
3.39589e-014
4.50681e-015
4.85723e-015
2.69403e-015
-6.77236e-015
7.22512e-015
6.4948e-015
1.28205e-014
1.08386e-014
1.39559e-015
-1.11022e-014
-5.36116e-015
2.63678e-015
-2.18991e-014
4.41591e-014
1.11378e-012
-1.32082e-014
-8.23341e-013
-3.1232e-014
4.40536e-013
6.46184e-015
1.29941e-012
3.3985e-014
-1.03562e-012
2.97453e-014
-4.583e-013
-1.74253e-014
-6.9722e-013
-3.85646e-014
-5.8975e-013
-1.74201e-014
3.10862e-014
2.79794e-014
2.3892e-013
2.38034e-013
3.81473e-013
3.08799e-012
-3.33511e-013
5.86975e-011
-4.91607e-013
7.22606e-010
4.78728e-012
1.10514e-008
1.53502e-010
1.13458e-007
2.03481e-009
1.36602e-006
1.78333e-008
1.14682e-005
2.26095e-007
0.000105282
7.31381e-007
0.000703926
9.41456e-006
0.0046632
4.15976e-005
0.0236202
-0.000486522
0.0996294
-0.00594315
0.309645
-0.0278029
0.733736
-0.0721056
1.38456
-0.162047
2.00898
-0.115179
2.40035
-0.0410671
2.41417
0.0461506
2.25095
-0.379724
2.01306
-0.335256
1.9952
-0.12881
1.70623
0.311853
0.426979
0.544001
0.0843497
0.315233
0.00988562
0.0352239
0.00149077
0.0024909
0.000151728
0.000433235
4.50967e-005
7.839e-005
-1.38513e-006
-2.11588e-005
2.04728e-006
1.01776e-005
-2.91494e-007
-2.72597e-006
9.33747e-008
7.02574e-007
-1.67954e-008
-1.56739e-007
3.79337e-009
3.35136e-008
-6.92022e-010
-6.6122e-009
1.33883e-010
1.25417e-009
-2.35391e-011
-2.26193e-010
4.16889e-012
3.95042e-011
-7.04162e-013
-6.65981e-012
1.06791e-013
1.09891e-012
-2.57468e-014
-1.81202e-013
1.95503e-015
3.20299e-014
1.54477e-015
8.54872e-015
4.11129e-015
1.47105e-015
4.06706e-015
1.8624e-014
8.09162e-015
3.14332e-014
2.81546e-015
-2.73115e-014
-2.22652e-015
-7.56339e-015
-1.17267e-014
3.99056e-014
1.37579e-012
-1.44485e-014
-9.29035e-013
-4.18259e-014
-4.84945e-013
-2.23779e-015
1.14841e-012
2.96256e-014
-1.01874e-012
1.84835e-014
-4.90274e-013
-3.27828e-014
-1.51257e-012
-4.70405e-014
-7.47846e-013
-2.52298e-014
-3.81029e-013
2.43954e-014
4.72511e-013
2.35872e-013
3.51275e-013
3.19925e-012
-9.41469e-014
6.06494e-011
-6.93667e-013
7.55131e-010
-6.58806e-012
1.14973e-008
3.23621e-011
1.18487e-007
3.567e-010
1.42372e-006
-1.69142e-009
1.19092e-005
6.56968e-008
0.000109143
-9.88552e-007
0.000722641
-7.92789e-007
0.0047508
-4.6667e-005
0.0239334
-0.000947719
0.100569
-0.00974465
0.312958
-0.0416217
0.739598
-0.0992837
1.38673
-0.200473
1.988
-0.0685166
2.33628
0.0438114
2.40189
0.282256
2.27659
-0.220456
2.08157
-0.392852
2.01991
-0.221732
1.68866
0.302159
0.436188
0.589496
0.0914329
0.38752
0.011583
0.0515947
0.00174378
0.00370787
0.000192024
0.000772629
5.66268e-005
0.000136123
-2.13239e-006
-2.28444e-005
2.62866e-006
1.27999e-005
-4.0568e-007
-3.1153e-006
1.27204e-007
8.36473e-007
-2.36291e-008
-1.80381e-007
5.34814e-009
3.86166e-008
-9.87353e-010
-7.47921e-009
1.91885e-010
1.41166e-009
-3.38803e-011
-2.51521e-010
6.01958e-012
4.36794e-011
-1.01835e-012
-7.30738e-012
1.63114e-013
1.18196e-012
-3.18504e-014
-1.54723e-013
3.44776e-015
3.26544e-014
4.83641e-015
5.02376e-015
5.02636e-015
9.27036e-015
9.4369e-015
4.40759e-014
1.12107e-014
5.4734e-014
-9.61037e-016
-7.43849e-015
-4.29864e-015
-1.29896e-014
-7.81319e-015
3.69219e-014
1.26299e-012
-1.33348e-014
-7.6561e-013
-3.26631e-014
-7.95808e-013
2.07126e-015
5.19584e-013
2.63314e-014
-8.09131e-013
1.85182e-014
-1.01164e-012
-2.47285e-014
-1.93889e-012
-4.11372e-014
-4.15668e-013
-1.83169e-014
-6.39488e-014
2.7452e-014
6.23501e-013
1.84441e-013
2.61124e-013
1.94564e-012
6.18172e-013
4.29511e-011
1.42064e-012
4.66463e-010
2.43117e-011
8.10994e-009
3.57718e-010
7.59372e-008
5.585e-009
1.01296e-006
3.82302e-008
8.03922e-006
5.99347e-007
7.97038e-005
1.63307e-006
0.00052236
2.68643e-005
0.00367499
3.38197e-005
0.0188348
-0.000213193
0.0827515
-0.010033
0.263849
-0.0427925
0.642536
-0.117066
1.24446
-0.244866
1.86571
-0.20494
2.23803
-0.155712
2.33336
0.133589
2.19719
-0.124495
2.00828
-0.244865
1.87009
-0.0999563
1.58892
0.349401
0.430905
0.475086
0.0966117
0.431226
0.0133113
0.0633083
0.00197074
0.00540783
0.0002553
0.001021
5.68002e-005
0.000187304
1.78163e-006
-1.57879e-005
2.31764e-006
1.35258e-005
-2.3408e-007
-3.09381e-006
1.01502e-007
8.53419e-007
-1.64331e-008
-1.77886e-007
4.11482e-009
3.82488e-008
-7.22909e-010
-7.26338e-009
1.46341e-010
1.36813e-009
-2.53665e-011
-2.40681e-010
4.59374e-012
4.16344e-011
-7.72132e-013
-6.90249e-012
1.23974e-013
1.09814e-012
-2.41638e-014
-1.70516e-013
6.46184e-016
3.70537e-014
2.81806e-015
2.19269e-014
1.15255e-014
2.91156e-014
1.20156e-014
6.64746e-014
1.39272e-014
5.97161e-014
6.43582e-015
1.33921e-014
-6.13225e-016
-2.19269e-015
5.2458e-015
3.4959e-014
9.59233e-013
-1.31605e-014
-7.53175e-013
-4.3493e-014
-1.7204e-012
-5.58407e-015
2.45137e-013
2.62689e-014
-6.31495e-013
1.18985e-014
-1.59428e-012
-2.61353e-014
-2.21334e-012
-3.42244e-014
-3.79252e-013
-1.62283e-014
-7.10543e-014
2.07872e-014
1.13154e-012
1.8298e-013
3.01981e-013
2.02774e-012
-4.17444e-014
4.47586e-011
6.43485e-013
4.90702e-010
2.39928e-011
8.52068e-009
2.7655e-010
7.98056e-008
5.40874e-009
1.06698e-006
2.69819e-008
8.37334e-006
5.87207e-007
8.32975e-005
1.47188e-007
0.000534987
2.87391e-005
0.0037308
-5.28316e-005
0.0188692
-0.000207037
0.0824402
-0.0132934
0.262626
-0.052915
0.637523
-0.153636
1.22359
-0.319409
1.81964
-0.392033
2.15606
-0.340016
2.24053
-0.129803
2.12143
-0.178525
1.95853
-0.126327
1.81124
0.0316925
1.54223
0.409458
0.43874
0.34919
0.101908
0.486144
0.0147283
0.0731458
0.0022462
0.00762058
0.000297328
0.00127857
6.74361e-005
0.000237976
2.96937e-006
-7.31082e-006
2.59019e-006
1.39784e-005
-2.27877e-007
-2.76496e-006
1.11936e-007
8.37879e-007
-1.71441e-008
-1.65591e-007
4.4781e-009
3.66291e-008
-7.62736e-010
-6.78787e-009
1.57255e-010
1.2927e-009
-2.67631e-011
-2.24558e-010
4.88251e-012
3.90056e-011
-8.10859e-013
-6.41816e-012
1.27779e-013
9.9705e-013
-2.93689e-014
-1.69392e-013
3.04444e-015
3.03507e-014
7.23987e-015
2.75058e-014
9.87838e-015
2.58543e-014
1.00154e-014
5.60385e-014
1.06998e-014
4.67681e-014
4.35763e-015
1.30451e-014
-6.85216e-017
7.31359e-015
7.95197e-015
3.12996e-014
1.06493e-012
-1.56437e-014
-1.29319e-012
-3.14731e-014
-1.23457e-012
-5.04805e-016
1.48326e-013
1.91756e-014
-5.27578e-013
9.33455e-015
-1.07647e-012
-2.27509e-014
-2.36522e-012
-3.35895e-014
-5.71099e-013
-1.14735e-014
-5.03597e-013
2.59341e-014
1.65645e-012
1.41404e-013
1.1191e-013
1.18728e-012
-1.75859e-013
3.38724e-011
1.11822e-012
3.01064e-010
4.13429e-011
6.33224e-009
3.53364e-010
5.11999e-008
8.53095e-009
7.85969e-007
3.75763e-008
5.68227e-006
9.39202e-007
6.20803e-005
1.35899e-006
0.000389482
4.8968e-005
0.00292687
-1.08932e-005
0.0150372
0.000491062
0.0688979
-0.0123938
0.22454
-0.0524161
0.55998
-0.176251
1.10281
-0.370339
1.69412
-0.57608
2.0482
-0.414243
2.13705
-0.340434
2.04294
-0.276039
1.90271
0.0689157
1.77156
0.171609
1.53017
0.437274
0.49731
0.215047
0.109039
0.525652
0.0162279
0.0804515
0.00250162
0.00983245
0.000357856
0.00155775
7.10534e-005
0.000267702
5.64365e-006
4.23204e-006
2.51755e-006
1.42032e-005
-1.12111e-007
-2.37779e-006
1.01199e-007
7.77657e-007
-1.27013e-008
-1.42943e-007
3.8721e-009
3.30396e-008
-6.07792e-010
-5.9216e-009
1.33485e-010
1.14945e-009
-2.19002e-011
-1.96258e-010
4.11357e-012
3.43667e-011
-6.75058e-013
-5.60603e-012
1.04107e-013
8.45254e-013
-2.34261e-014
-1.38209e-013
1.54651e-015
4.11476e-014
4.12257e-015
2.98234e-014
9.3597e-015
4.01484e-014
8.35963e-015
3.66235e-014
1.04517e-014
4.50612e-014
8.52877e-015
3.58324e-014
2.72265e-015
8.45157e-015
9.74221e-015
3.0656e-014
1.59872e-013
-1.38049e-014
-1.84208e-012
-3.65662e-014
-1.21236e-012
-6.69603e-015
3.33955e-013
2.41213e-014
-7.29194e-013
1.32689e-014
-8.72191e-013
-2.59254e-014
-2.22755e-012
-3.44585e-014
-9.05942e-013
-1.12479e-014
-1.27898e-013
2.17344e-014
1.77014e-012
1.40185e-013
1.02141e-013
1.20885e-012
2.22045e-014
3.48497e-011
3.78364e-013
3.07746e-010
4.26628e-011
6.57393e-009
2.17589e-010
5.27316e-008
8.69898e-009
8.21722e-007
2.13799e-008
5.84516e-006
9.66918e-007
6.46435e-005
-9.01669e-008
0.000395371
5.32637e-005
0.00295462
-0.000134041
0.0149092
0.000820634
0.0677967
-0.0139372
0.220462
-0.0564464
0.548685
-0.201328
1.07364
-0.415249
1.63852
-0.707463
1.97502
-0.424332
2.06613
-0.406406
2.00548
-0.250339
1.89087
0.279731
1.77332
0.306425
1.56582
0.435427
0.792297
0.139118
0.115628
0.539766
0.0173742
0.0856322
0.00276926
0.0118185
0.000403043
0.00182397
7.91656e-005
0.000305254
7.33516e-006
1.21682e-005
2.72997e-006
1.52535e-005
-5.64356e-008
-1.83596e-006
1.03163e-007
7.29006e-007
-1.08075e-008
-1.20541e-007
3.79243e-009
3.00583e-008
-5.4629e-010
-5.12876e-009
1.27304e-010
1.02922e-009
-1.99498e-011
-1.71381e-010
3.85139e-012
3.04723e-011
-6.15365e-013
-4.90145e-012
9.86533e-014
7.59087e-013
-1.90108e-014
-1.0765e-013
2.15539e-015
5.29438e-014
6.63011e-015
3.04201e-014
8.68923e-015
4.48669e-014
7.08461e-015
2.70478e-014
1.31943e-014
5.38458e-014
8.5305e-015
5.07788e-014
1.72171e-015
5.17641e-015
6.93889e-015
2.55074e-014
5.08926e-013
-1.64408e-014
-2.28262e-012
-2.78848e-014
-8.36664e-013
-1.65406e-015
9.42357e-013
1.51693e-014
-1.16174e-012
1.01377e-014
-9.32587e-013
-2.21542e-014
-1.70086e-012
-2.99882e-014
-1.01696e-012
-5.22846e-015
-1.66089e-013
2.23641e-014
1.4948e-012
1.2238e-013
2.45137e-013
6.71961e-013
6.68798e-013
2.82356e-011
-1.87406e-013
1.86358e-010
5.27338e-011
5.18719e-009
1.51287e-010
3.40318e-008
1.0672e-008
6.34019e-007
1.48296e-008
4.01827e-006
1.21365e-006
4.97034e-005
-1.39285e-008
0.000291292
7.01646e-005
0.00236397
-9.80556e-005
0.0120365
0.00129442
0.0575916
-0.0133319
0.19148
-0.0521097
0.489513
-0.217747
0.980358
-0.444736
1.53603
-0.786871
1.88784
-0.385432
2.00807
-0.206566
1.94683
0.0206972
1.82712
0.542305
1.67455
0.461951
1.55354
0.319096
0.91202
0.0593009
0.123548
0.572914
0.018694
0.0891191
0.0030234
0.0135588
0.000457617
0.00209882
8.53051e-005
0.000345895
9.32258e-006
2.58967e-005
2.85783e-006
1.56617e-005
3.74436e-008
-1.07089e-006
1.00255e-007
6.5705e-007
-7.5331e-009
-9.43244e-008
3.48784e-009
2.66137e-008
-4.36473e-010
-4.23469e-009
1.13355e-010
8.96932e-010
-1.65533e-011
-1.44022e-010
3.36495e-012
2.62775e-011
-5.15611e-013
-4.14788e-012
8.64179e-014
6.64024e-013
-1.47482e-014
-9.00946e-014
2.9911e-015
5.42899e-014
4.96868e-015
3.50692e-014
9.02403e-015
5.27356e-014
7.32053e-015
8.46545e-015
1.32351e-014
5.25135e-014
9.05439e-015
5.70932e-014
1.94116e-015
-2.9976e-015
5.34295e-015
2.7609e-014
1.12355e-012
-1.33253e-014
-3.04912e-012
-2.95449e-014
-8.9706e-013
-4.8659e-015
1.5401e-012
1.9232e-014
-6.49258e-013
1.45387e-014
-1.03029e-012
-1.97602e-014
-2.06324e-012
-2.75804e-014
-5.19584e-013
-1.05176e-014
-2.70894e-013
1.67262e-014
1.47704e-012
1.23826e-013
4.33431e-013
6.37566e-013
7.83373e-013
2.85624e-011
-8.99725e-013
1.79439e-010
5.70717e-011
5.28176e-009
-5.52713e-011
3.36737e-008
1.13154e-008
6.51051e-007
-9.96972e-009
4.03885e-006
1.29164e-006
5.09669e-005
-1.73415e-006
0.000292195
7.53986e-005
0.00236006
-0.000185584
0.0117858
0.00163015
0.056053
-0.0150517
0.185707
-0.0520514
0.475353
-0.235327
0.949691
-0.461627
1.48761
-0.819786
1.83213
-0.346597
1.9651
0.0578715
1.91507
0.358356
1.79674
0.784653
1.64183
0.58992
1.48164
0.181702
0.958238
-0.185536
0.128848
0.574099
0.0197377
0.0885341
0.00328328
0.0152512
0.000507187
0.00236156
9.38348e-005
0.00040048
1.12057e-005
4.1581e-005
3.05199e-006
1.59944e-005
1.28521e-007
-3.65884e-007
1.00043e-007
6.17191e-007
-4.78583e-009
-7.04352e-008
3.33307e-009
2.38872e-008
-3.48411e-010
-3.41944e-009
1.0441e-010
7.87696e-010
-1.38536e-011
-1.19627e-010
3.01923e-012
2.27669e-011
-4.37345e-013
-3.48577e-012
7.70811e-014
5.70516e-013
-1.3268e-014
-8.39051e-014
2.19182e-015
5.36099e-014
6.55552e-015
4.27575e-014
7.07984e-015
4.21885e-014
4.04364e-015
-4.35763e-015
1.11734e-014
4.42146e-014
6.46271e-015
4.05648e-014
-1.30104e-016
-1.29619e-014
8.97893e-015
2.17057e-014
1.23457e-012
-1.48553e-014
-3.0802e-012
-2.33034e-014
-8.82849e-013
6.17562e-016
1.79323e-012
1.5459e-014
-7.58504e-013
7.52436e-015
-1.19105e-012
-1.97863e-014
-1.47171e-012
-2.52923e-014
-1.07203e-012
-5.42275e-015
-2.41585e-013
2.13093e-014
1.89182e-012
1.16303e-013
4.16556e-013
3.11572e-013
1.34914e-012
2.46158e-011
-1.82077e-012
1.02714e-010
6.38218e-011
4.42374e-009
-1.81681e-010
2.14608e-008
1.30671e-008
5.2952e-007
-2.32404e-008
2.80758e-006
1.48511e-006
4.07832e-005
-2.17114e-006
0.000219358
8.87805e-005
0.00193268
-0.000189238
0.00964628
0.00206637
0.0482499
-0.0153242
0.163538
-0.0448753
0.429558
-0.245156
0.877756
-0.464686
1.40592
-0.846078
1.76649
-0.272176
1.92259
0.185821
1.86893
0.661818
1.73974
0.999319
1.58751
0.709325
1.39262
0.0670839
0.926104
-0.679804
0.131752
0.475679
0.0207969
0.0872774
0.0035567
0.0169767
0.000561278
0.0026761
0.000102421
0.000456078
1.33614e-005
5.76355e-005
3.21509e-006
1.64969e-005
2.11265e-007
2.13014e-007
1.00964e-007
6.11134e-007
-1.93239e-009
-4.93366e-008
3.18114e-009
2.15086e-008
-2.54893e-010
-2.63152e-009
9.5462e-011
6.89884e-010
-1.10513e-011
-9.61534e-011
2.68101e-012
1.95687e-011
-3.59205e-013
-2.85827e-012
6.51601e-014
4.88359e-013
-1.1094e-014
-7.31082e-014
3.64379e-015
4.10505e-014
5.16297e-015
2.54935e-014
5.79224e-015
2.71033e-014
3.92221e-015
9.71445e-017
7.59809e-015
3.73868e-014
4.58487e-015
2.52992e-014
5.36897e-016
-1.00753e-014
1.3059e-014
2.30024e-014
1.75149e-012
-1.2124e-014
-3.39373e-012
-2.51856e-014
-1.45484e-012
-4.86416e-015
1.81899e-012
1.30382e-014
-7.49623e-013
1.33235e-014
-8.17124e-013
-1.60601e-014
-1.15641e-012
-2.52246e-014
-9.91207e-013
-1.32706e-015
-4.84945e-013
2.15956e-014
1.91935e-012
1.1322e-013
3.81917e-013
2.38844e-013
1.08091e-012
2.44027e-011
-3.01892e-012
9.23129e-011
6.59117e-011
4.40654e-009
-4.35062e-010
2.02919e-008
1.38735e-008
5.30808e-007
-5.36853e-008
2.74343e-006
1.5585e-006
4.09662e-005
-4.20905e-006
0.000215994
9.30041e-005
0.00190253
-0.000255978
0.00932694
0.00230095
0.046553
-0.016259
0.15711
-0.0428684
0.413837
-0.261104
0.845137
-0.475368
1.36101
-0.899982
1.71268
-0.270463
1.87437
0.18466
1.82721
0.828529
1.6914
1.21147
1.5375
0.836691
1.28788
0.0223123
0.831724
-1.13389
0.1324
0.271012
0.0220803
0.0901498
0.00385013
0.0189876
0.000616768
0.00302456
0.000111537
0.000522268
1.54501e-005
7.27991e-005
3.41554e-006
1.76378e-005
2.8863e-007
7.83414e-007
1.04721e-007
6.20839e-007
8.60331e-010
-2.48283e-008
3.09997e-009
1.96552e-008
-1.67559e-010
-1.91597e-009
8.87548e-011
6.14552e-010
-8.44835e-012
-7.5367e-011
2.40305e-012
1.70417e-011
-2.85742e-013
-2.30796e-012
5.91059e-014
4.10866e-013
-1.01555e-014
-7.086e-014
-2.29981e-015
3.08364e-014
-4.90927e-016
2.04142e-014
3.59608e-015
2.82135e-014
4.30298e-015
7.63278e-015
7.09415e-015
5.0987e-014
3.8216e-015
4.00097e-014
1.78677e-016
-1.04916e-014
3.52496e-015
1.71842e-014
1.51434e-012
-1.33383e-014
-3.16813e-012
-2.06909e-014
-1.28964e-012
-1.11803e-015
2.14051e-012
1.50028e-014
-7.58504e-013
1.22931e-014
-8.17124e-013
-1.52552e-014
-6.62581e-013
-2.47059e-014
-1.50369e-012
-6.54077e-015
-5.78204e-013
1.68771e-014
2.12363e-012
1.0251e-013
7.87814e-013
-3.28071e-014
1.25588e-012
2.21975e-011
-3.57403e-012
3.84861e-011
7.53797e-011
3.89928e-009
-6.24543e-010
1.28361e-008
1.49785e-008
4.54324e-007
-7.43593e-008
1.9318e-006
1.72142e-006
3.41291e-005
-5.29968e-006
0.000165656
0.00010314
0.00159374
-0.000264064
0.00774966
0.0026642
0.0405867
-0.015635
0.139748
-0.0402604
0.377026
-0.27155
0.785573
-0.481236
1.28807
-0.975407
1.6471
-0.353222
1.82121
0.0218038
1.78362
0.774097
1.64187
1.37798
1.48962
0.950804
1.21434
0.00623905
0.720291
-1.33672
0.132533
-0.0421873
0.0238708
0.101913
0.00417301
0.0214038
0.000674693
0.00342119
0.000121174
0.000600317
1.75458e-005
8.88438e-005
3.65824e-006
1.90395e-005
3.63732e-007
1.48124e-006
1.09207e-007
6.31087e-007
4.08366e-009
3.01038e-010
3.05626e-009
1.87107e-008
-8.40492e-011
-1.2475e-009
8.38514e-011
5.52421e-010
-6.0603e-012
-5.59588e-011
2.18712e-012
1.49253e-011
-2.22951e-013
-1.80381e-012
4.8538e-014
3.28959e-013
-9.13375e-015
-5.07094e-014
8.06213e-016
2.62568e-014
3.89185e-015
1.22402e-014
6.94843e-015
4.42146e-014
6.93976e-015
1.47937e-014
9.9803e-015
2.44665e-014
6.97489e-015
6.85008e-014
8.71699e-016
-6.93889e-017
1.42386e-014
1.80828e-014
1.9913e-012
-1.10476e-014
-2.91056e-012
-2.0677e-014
-8.32223e-013
-3.26562e-015
2.13518e-012
1.25022e-014
-6.35936e-013
1.51337e-014
-8.37552e-013
-1.60124e-014
-1.21769e-012
-2.54137e-014
-1.5401e-012
9.68843e-016
-6.73239e-013
2.43486e-014
1.93889e-012
1.08085e-013
1.03473e-012
-1.08981e-013
1.36779e-012
2.17384e-011
-4.85834e-012
2.05685e-011
8.76765e-011
3.80243e-009
-8.89184e-010
1.10083e-008
1.55801e-008
4.45883e-007
-1.06863e-007
1.80727e-006
1.81063e-006
3.35983e-005
-7.41736e-006
0.00015958
0.000107855
0.00154979
-0.000323293
0.00741367
0.00283135
0.0387792
-0.0157479
0.133047
-0.0387139
0.360619
-0.281256
0.750383
-0.486775
1.23571
-1.057
1.5807
-0.460814
1.7516
-0.352025
1.73388
0.532972
1.60001
1.42723
1.47309
0.994622
1.15309
0.0549523
0.627256
-1.37487
0.133719
-0.415072
0.0263166
0.122014
0.00451189
0.0242094
0.000733987
0.00385665
0.000131268
0.000687511
1.96518e-005
0.000105018
3.91248e-006
2.07555e-005
4.33368e-007
2.11268e-006
1.1342e-007
6.57029e-007
6.80313e-009
1.74506e-008
3.07728e-009
1.88447e-008
-6.55836e-012
-6.3999e-010
8.03508e-011
5.05999e-010
-3.74916e-012
-3.84032e-011
2.01004e-012
1.32933e-011
-1.61802e-013
-1.35469e-012
4.56965e-014
2.80997e-013
-4.77266e-015
-3.88023e-014
-3.39182e-015
2.25653e-014
-2.08861e-015
-1.77913e-014
4.62868e-015
1.89987e-014
3.06786e-015
1.31978e-014
6.58675e-015
1.51823e-014
5.60619e-015
7.11931e-014
2.47328e-015
-1.11161e-014
1.83881e-014
1.36445e-014
1.80655e-012
-8.76469e-015
-2.46025e-012
-1.5681e-014
-1.14486e-012
-2.28637e-015
1.76303e-012
1.29948e-014
-2.78e-013
8.71699e-015
-4.62741e-013
-1.73013e-014
-1.12976e-012
-2.1907e-014
-1.27187e-012
-4.75574e-015
-5.77316e-013
1.72935e-014
2.11564e-012
1.01468e-013
8.88178e-013
-2.67527e-013
1.24967e-012
2.05231e-011
-6.68088e-012
-1.68443e-011
1.04153e-010
3.50152e-009
-1.1174e-009
5.27475e-009
1.72456e-008
3.97718e-007
-1.34561e-007
1.30949e-006
1.92323e-006
2.90535e-005
-8.88449e-006
0.000124976
0.000116992
0.00132747
-0.00035235
0.00623841
0.00311839
0.034223
-0.01475
0.119585
-0.0329142
0.331307
-0.286846
0.700498
-0.49625
1.17003
-1.15465
1.50649
-0.638863
1.67018
-0.820072
1.67188
0.171263
1.55522
1.3022
1.43942
0.954411
1.15306
0.20254
0.62903
-1.18079
0.14155
-0.533072
0.0294045
0.146165
0.00485918
0.027509
0.000793206
0.00431495
0.000141655
0.000779482
2.17106e-005
0.000121025
4.1856e-006
2.28917e-005
5.06286e-007
2.72691e-006
1.1931e-007
6.95792e-007
9.40636e-009
3.94273e-008
3.18376e-009
1.938e-008
8.92284e-011
5.16257e-011
7.87731e-011
4.8377e-010
-1.66401e-012
-2.21641e-011
1.8929e-012
1.20282e-011
-1.07934e-013
-9.53043e-013
3.90803e-014
2.61346e-013
-6.31136e-015
-4.77118e-014
-2.47328e-015
3.83027e-015
-1.09288e-015
1.60982e-015
3.21271e-015
2.13163e-014
3.80381e-015
7.60503e-015
9.10383e-015
3.82888e-014
5.27096e-015
5.62883e-014
4.92661e-016
-1.38223e-014
1.76109e-014
1.46567e-014
1.22835e-012
-9.567e-015
-2.54552e-012
-1.92242e-014
-1.43707e-012
-3.94736e-015
1.68843e-012
1.317e-014
4.79616e-014
1.55015e-014
-2.04281e-013
-1.30538e-014
-7.14095e-013
-2.06918e-014
-1.34381e-012
3.2422e-015
-2.78e-013
2.16641e-014
2.10054e-012
9.58079e-014
7.91367e-013
-3.49974e-013
1.07025e-012
2.00411e-011
-8.06377e-012
-3.34146e-011
1.2012e-010
3.38889e-009
-1.39544e-009
2.97089e-009
1.93475e-008
3.83988e-007
-1.66021e-007
1.15461e-006
2.01098e-006
2.81393e-005
-1.10454e-005
0.000117413
0.000122836
0.00127664
-0.000416119
0.00591351
0.00326911
0.0325822
-0.0150175
0.113261
-0.0276313
0.315147
-0.290471
0.665423
-0.50409
1.11515
-1.24919
1.43504
-0.824351
1.58648
-1.26121
1.59222
-0.368647
1.49905
0.840957
1.44066
0.772883
1.18908
0.394966
0.701505
-0.813649
0.154345
-0.465813
0.0326439
0.174194
0.00522805
0.0314971
0.000852361
0.00477589
0.000151984
0.000877603
2.37568e-005
0.000136976
4.47429e-006
2.53832e-005
5.80496e-007
3.3679e-006
1.25882e-007
7.44283e-007
1.17542e-008
6.06548e-008
3.28238e-009
2.03466e-008
1.70338e-010
5.67103e-010
7.87305e-011
4.90742e-010
4.32737e-013
-7.65679e-012
1.80992e-012
1.11829e-011
-5.55532e-014
-5.90972e-013
3.86813e-014
2.54491e-013
-4.46128e-015
-3.93852e-014
-2.79724e-015
1.37945e-014
-1.07596e-015
2.55351e-015
3.60432e-015
3.44169e-014
5.33427e-015
1.8846e-014
7.84225e-015
2.12746e-014
2.7413e-015
3.88023e-014
1.48536e-015
-2.10942e-014
2.84495e-014
9.80292e-015
9.5568e-013
-8.06993e-015
-2.45937e-012
-1.3608e-014
-1.18661e-012
-2.32279e-015
1.1191e-012
1.35959e-014
3.96128e-013
1.06096e-014
-1.24345e-014
-1.48796e-014
-7.363e-013
-1.61095e-014
-8.34888e-013
2.19009e-015
-3.10862e-014
1.6329e-014
1.76215e-012
9.2557e-014
3.03757e-013
-4.51253e-013
9.37916e-013
1.92197e-011
-9.69269e-012
-5.5745e-011
1.37174e-010
3.2057e-009
-1.65906e-009
-1.00638e-009
2.19427e-008
3.53192e-007
-1.95429e-007
7.7412e-007
2.16274e-006
2.50951e-005
-1.30061e-005
9.46665e-005
0.000130275
0.0011174
-0.0004602
0.00504583
0.00350481
0.0290246
-0.0144969
0.102846
-0.0124622
0.291158
-0.29093
0.623187
-0.514185
1.05587
-1.34403
1.36477
-1.02699
1.50143
-1.65436
1.50524
-0.984559
1.41232
0.433037
1.39806
0.565093
1.22441
0.526273
0.762831
-0.365116
0.167811
-0.296546
0.0357995
0.207655
0.0056123
0.035736
0.000909729
0.00524267
0.000162613
0.000977496
2.57697e-005
0.000153433
4.784e-006
2.80783e-005
6.53732e-007
4.00927e-006
1.33144e-007
8.07253e-007
1.3849e-008
8.08034e-008
3.42766e-009
2.15866e-008
2.444e-010
1.16317e-009
8.11891e-011
5.13633e-010
2.71829e-012
7.1283e-012
1.78347e-012
1.10831e-011
-9.24217e-015
-2.51438e-013
3.59829e-014
2.30066e-013
-3.25824e-015
-3.13916e-014
-1.21604e-015
2.59515e-014
9.20704e-016
9.49241e-015
6.50912e-015
4.87943e-014
4.07226e-015
2.47857e-014
5.21111e-015
2.07057e-014
1.67965e-015
2.09555e-014
1.2026e-015
-1.88877e-014
2.8838e-014
1.15697e-014
4.08562e-013
-8.0257e-015
-2.60947e-012
-1.64382e-014
-8.05578e-013
-4.07226e-015
1.525e-012
1.3353e-014
3.39284e-013
1.32203e-014
1.61648e-013
-8.15667e-015
-7.92255e-013
-1.13017e-014
-4.37872e-013
2.42254e-015
-1.35891e-013
9.93389e-015
1.77636e-012
8.28495e-014
2.14939e-013
-5.20301e-013
1.02851e-012
1.87627e-011
-1.11315e-011
-6.9522e-011
1.54976e-010
3.09753e-009
-1.94625e-009
-2.88065e-009
2.44984e-008
3.38495e-007
-2.27611e-007
6.07289e-007
2.30424e-006
2.39927e-005
-1.52319e-005
8.67089e-005
0.000136027
0.00106402
-0.000524349
0.00473944
0.00366539
0.0276202
-0.0147191
0.0972004
0.00169922
0.2759
-0.290889
0.590567
-0.520781
1.00364
-1.42168
1.29958
-1.20966
1.42536
-2.00516
1.43092
-1.49023
1.32674
0.124747
1.32375
0.355102
1.23251
0.565569
0.827593
0.0810028
0.182474
-0.0280392
0.0388405
0.243938
0.00598209
0.0397885
0.000965746
0.00572585
0.000173041
0.00107699
2.77802e-005
0.000170383
5.09445e-006
3.10522e-005
7.26095e-007
4.65835e-006
1.41028e-007
8.83093e-007
1.6138e-008
1.02026e-007
3.59268e-009
2.30481e-008
3.08959e-010
1.7509e-009
8.38123e-011
5.46978e-010
4.73267e-012
2.13453e-011
1.80967e-012
1.15686e-011
4.42233e-014
8.07132e-014
3.54829e-014
2.07695e-013
-5.65086e-016
-2.27041e-014
-9.12465e-016
1.54043e-014
2.81893e-016
5.55112e-016
3.75394e-015
4.66016e-014
4.27523e-015
2.28983e-014
4.81906e-015
1.77913e-014
1.13451e-015
4.91274e-015
2.29547e-015
-1.28508e-014
2.24959e-014
7.45844e-015
2.78888e-013
-6.28664e-015
-2.09965e-012
-1.06729e-014
-1.06759e-012
-1.96371e-015
1.58895e-012
1.34224e-014
2.39808e-013
1.13694e-014
1.91847e-013
-1.17987e-014
-1.08447e-012
-1.29185e-014
-1.07736e-012
4.20757e-015
1.37668e-013
1.59803e-014
2.1636e-012
8.71516e-014
5.23137e-013
-5.82962e-013
1.17062e-012
1.81584e-011
-1.25873e-011
-8.45991e-011
1.73932e-010
2.96121e-009
-2.22724e-009
-5.16668e-009
2.71558e-008
3.17454e-007
-2.57179e-007
3.38094e-007
2.50065e-006
2.19076e-005
-1.71989e-005
7.13158e-005
0.000142945
0.000949872
-0.000581198
0.00411488
0.00386013
0.0248261
-0.0144505
0.088834
0.00824732
0.256004
-0.287845
0.55491
-0.522551
0.951169
-1.47549
1.2378
-1.36129
1.35975
-2.2761
1.36819
-1.84816
1.26839
-0.129263
1.24868
0.147329
1.21767
0.528142
0.891048
0.38577
0.195418
0.159699
0.0414241
0.278923
0.00633291
0.0434043
0.00102138
0.00624493
0.000183604
0.00117585
2.97888e-005
0.000188273
5.42338e-006
3.42803e-005
7.97686e-007
5.33561e-006
1.49722e-007
9.68231e-007
1.84201e-008
1.2348e-007
3.7787e-009
2.49524e-008
3.65626e-010
2.33094e-009
8.76134e-011
5.83071e-010
6.49121e-012
3.5811e-011
1.87149e-012
1.23244e-011
9.01922e-014
3.84803e-013
3.50089e-014
2.12552e-013
-7.76289e-016
-1.22125e-014
-2.21698e-015
-1.13798e-015
3.07913e-016
2.13718e-015
4.87631e-015
5.8259e-014
3.23396e-015
2.07612e-014
2.39739e-015
1.9762e-014
1.05688e-015
7.38298e-015
2.28463e-015
-9.82547e-015
1.8513e-014
9.2322e-015
-1.45661e-013
-6.88685e-015
-2.63434e-012
-1.39931e-014
-1.53477e-012
-4.91447e-015
1.71596e-012
1.20008e-014
4.76952e-013
1.08238e-014
-2.21156e-013
-1.08412e-014
-9.27258e-013
-9.57567e-015
-8.02025e-013
6.29878e-015
1.50102e-013
1.11326e-014
1.87228e-012
7.97756e-014
1.16351e-013
-6.34625e-013
1.12177e-012
1.77177e-011
-1.4218e-011
-9.49895e-011
1.93386e-010
2.86462e-009
-2.51703e-009
-6.7165e-009
2.98757e-008
3.04265e-007
-2.89796e-007
1.77311e-007
2.74011e-006
2.08013e-005
-1.94587e-005
6.34092e-005
0.000149301
0.000897297
-0.000650425
0.00382777
0.00401614
0.0234362
-0.01455
0.0835994
0.0138749
0.242236
-0.282517
0.52611
-0.515268
0.904552
-1.49862
1.1818
-1.46194
1.30349
-2.44779
1.31037
-2.09069
1.19725
-0.401507
1.17928
-0.0417909
1.18737
0.437659
0.923923
0.583168
0.204521
0.322389
0.0435243
0.310004
0.00664873
0.0465324
0.00107681
0.0067995
0.000193912
0.00127397
3.18017e-005
0.00020735
5.75269e-006
3.77136e-005
8.68626e-007
6.03187e-006
1.58543e-007
1.06468e-006
2.06522e-008
1.45059e-007
3.98695e-009
2.72308e-008
4.28303e-010
2.92581e-009
9.16438e-011
6.27102e-010
7.84616e-012
5.00613e-011
1.94495e-012
1.31909e-011
1.32192e-013
7.14984e-013
3.74006e-014
2.4597e-013
4.80952e-016
-8.02136e-015
-2.23996e-015
-1.87073e-014
1.47018e-015
7.60503e-015
4.29301e-015
6.82232e-014
3.77563e-015
3.04479e-014
4.45694e-015
1.94011e-014
1.59768e-015
1.45994e-014
9.97466e-016
-1.25455e-014
8.02136e-015
6.02123e-015
-1.79412e-013
-6.20077e-015
-2.58638e-012
-8.55219e-015
-1.18661e-012
-4.16334e-016
1.65024e-012
1.16339e-014
6.27054e-013
8.2781e-015
1.29674e-013
-1.07397e-014
-1.20881e-012
-9.72833e-015
-1.24523e-012
3.1624e-015
4.74287e-013
7.60416e-015
1.26121e-012
7.77278e-014
-1.35891e-013
-6.76004e-013
1.50102e-012
1.72133e-011
-1.58025e-011
-1.0495e-010
2.13334e-010
2.75729e-009
-2.80137e-009
-8.29616e-009
3.26776e-008
2.89257e-007
-3.22168e-007
-2.49234e-008
3.00242e-006
1.93008e-005
-2.18484e-005
5.16883e-005
0.000156834
0.000814302
-0.000718382
0.00337199
0.00419134
0.0212448
-0.0144526
0.0767911
0.0176022
0.225876
-0.273524
0.496355
-0.500885
0.859691
-1.50004
1.13041
-1.50788
1.25405
-2.52303
1.25412
-2.19874
1.14282
-0.683438
1.11757
-0.221367
1.14326
0.320272
0.93702
0.67814
0.21113
0.449427
0.0451862
0.335635
0.00693881
0.0491586
0.00113277
0.00737877
0.000204302
0.0013729
3.3836e-005
0.000227753
6.09244e-006
4.13452e-005
9.38808e-007
6.7555e-006
1.68018e-007
1.1701e-006
2.28397e-008
1.67395e-007
4.21667e-009
2.97788e-008
4.89865e-010
3.52792e-009
9.65419e-011
6.82324e-010
9.38165e-012
6.46578e-011
2.04243e-012
1.42157e-011
1.64545e-013
1.04522e-012
3.90903e-014
2.70894e-013
-4.23273e-016
-2.83107e-015
-2.26598e-015
-1.31006e-014
1.41857e-015
1.66533e-014
4.6998e-015
5.11813e-014
3.05615e-015
3.19744e-014
2.67798e-015
2.12885e-014
1.65926e-015
2.04559e-014
1.18265e-015
-8.32667e-016
1.1352e-014
7.91207e-015
3.03757e-013
-4.57273e-015
-1.97709e-012
-1.0731e-014
-1.21148e-012
-2.87183e-015