/*--------------------------------*- C++ -*----------------------------------*\
| =========                 |                                                 |
| \\      /  F ield         | OpenFOAM: The Open Source CFD Toolbox           |
|  \\    /   O peration     | Version:  5.x                                   |
|   \\  /    A nd           | Web:      www.OpenFOAM.org                      |
|    \\/     M anipulation  |                                                 |
\*---------------------------------------------------------------------------*/
/*   Windows 32 and 64 bit porting by blueCAPE: http://www.bluecape.com.pt   *\
|  Based on Windows porting (2.0.x v4) by Symscape: http://www.symscape.com   |
\*---------------------------------------------------------------------------*/
FoamFile
{
    version     2.0;
    format      ascii;
    class       volVectorField;
    location    "0.001";
    object      U;
}
// * * * * * * * * * * * * * * * * * * * * * * * * * * * * * * * * * * * * * //

dimensions      [0 1 -1 0 0 0 0];

internalField   nonuniform List<vector> 
10000
(
(2.62107e-012 -2.21127e-012 0)
(1.63265e-012 1.55827e-012 4.3482e-021)
(-3.0468e-012 -6.82615e-012 4.46844e-021)
(-1.27112e-012 2.25942e-012 -1.83681e-020)
(1.49608e-012 2.34946e-012 2.8314e-020)
(2.6236e-012 -2.33112e-012 -2.23e-034)
(1.82045e-013 -3.82369e-012 -1.99344e-020)
(-2.26062e-012 -2.24187e-012 0)
(-2.25657e-012 -2.14292e-012 0)
(-1.69752e-013 -1.76546e-013 0)
(3.1633e-012 8.25022e-013 -4.44654e-020)
(3.31926e-011 1.91548e-012 4.53296e-032)
(5.01805e-010 2.44222e-011 4.69587e-020)
(8.73135e-009 3.85238e-010 0)
(1.12608e-007 6.44583e-009 0)
(1.59029e-006 8.03003e-008 0)
(1.66565e-005 9.65135e-007 0)
(0.00018711 1.00453e-005 -5.38207e-020)
(0.00155411 8.62795e-005 1.10617e-019)
(0.0134229 0.000722323 -5.68391e-020)
(0.0854753 0.00457624 5.83598e-020)
(0.526773 0.0246728 -6.00383e-020)
(2.27714 0.102893 0)
(8.77627 0.361954 0)
(24.3618 1.04012 0)
(58.3458 2.28792 0)
(109.338 4.17533 0)
(159.822 5.25453 0)
(217.038 2.86784 -1.03729e-019)
(275.274 -0.198964 1.39393e-019)
(331.583 -1.761 0)
(370.077 3.98932 0)
(351.691 12.7715 0)
(231.736 17.8643 0)
(55.6779 12.1695 -1.36902e-019)
(4.8472 1.07949 2.88993e-019)
(0.99956 0.133492 -2.90925e-019)
(-0.0124921 0.00603824 1.48653e-019)
(0.0495129 0.00535557 -1.52715e-019)
(-0.00814543 -0.00168382 1.56917e-019)
(0.00286178 0.000561384 -1.6127e-019)
(-0.000587956 -0.000157086 1.65728e-019)
(0.000141196 3.98246e-005 0)
(-2.80961e-005 -9.24151e-006 0)
(5.709e-006 2.02166e-006 -1.79862e-019)
(-1.06209e-006 -4.14625e-007 1.84836e-019)
(1.9498e-007 8.14073e-008 0)
(-3.40375e-008 -1.52557e-008 0)
(5.82588e-009 2.76426e-009 0)
(-9.64608e-010 -4.82809e-010 2.06145e-019)
(1.52142e-010 8.16084e-011 -2.11846e-019)
(-2.77263e-011 -1.19582e-011 0)
(1.80974e-012 1.69207e-012 0)
(3.30569e-013 1.65863e-012 2.29912e-019)
(2.42296e-012 -1.056e-012 -2.3627e-019)
(-2.19769e-013 6.04518e-013 0)
(3.9587e-012 1.79338e-012 0)
(3.75542e-012 -4.12991e-014 2.56418e-019)
(-1.5144e-012 -7.92235e-013 1.05451e-033)
(6.35368e-013 -2.48014e-012 -2.70796e-019)
(2.83466e-012 2.82667e-012 2.18911e-021)
(1.50851e-012 -5.41082e-013 -2.24965e-021)
(-3.01218e-012 4.38005e-012 0)
(-9.24327e-013 3.76649e-012 0)
(1.26426e-012 -1.63416e-012 0)
(2.39618e-012 2.67248e-013 0)
(2.60575e-013 9.69209e-013 2.06272e-020)
(-2.18828e-012 -5.64467e-013 -2.11976e-020)
(-2.18441e-012 1.38657e-012 -2.17838e-020)
(-1.2349e-013 7.5957e-013 2.23862e-020)
(2.65476e-012 1.09873e-012 0)
(2.45893e-011 -1.50888e-012 -4.7283e-020)
(3.34417e-010 -2.64896e-011 4.85906e-020)
(6.45963e-009 -3.82089e-010 -4.99343e-020)
(7.69457e-008 -5.93565e-009 5.13152e-020)
(1.19404e-006 -7.3049e-008 0)
(1.17944e-005 -8.86887e-007 0)
(0.000144023 -8.90017e-006 0)
(0.00115383 -8.03481e-005 0)
(0.0107144 -0.000638254 0)
(0.0675364 -0.00390925 0)
(0.445494 -0.0244984 0)
(1.95054 -0.1163 0)
(7.86525 -0.432795 0)
(22.1917 -1.24842 -6.19323e-020)
(54.6336 -2.86103 6.93345e-020)
(104.893 -4.60037 -5.72477e-020)
(159.146 -4.90841 6.6118e-020)
(214.806 -4.53359 0)
(269.082 -6.94677 0)
(319.153 -6.05256 0)
(348.72 -3.99233 0)
(326.609 1.44501 1.77673e-019)
(221.182 6.88806 -2.28168e-019)
(61.6406 9.91513 0)
(6.76856 1.12241 0)
(1.24979 0.0576803 0)
(0.0520148 0.0228124 1.53723e-019)
(0.04855 -0.00212398 -1.58092e-019)
(-0.00452829 0.000586038 0)
(0.00234369 8.53271e-005 -1.66874e-019)
(-0.000386542 -2.88359e-005 3.42975e-019)
(0.000102856 1.32461e-005 -1.76231e-019)
(-1.85883e-005 -3.38555e-006 0)
(3.88721e-006 8.63846e-007 -1.86112e-019)
(-6.90415e-007 -1.88355e-007 3.82518e-019)
(1.27427e-007 3.96083e-008 -3.93096e-019)
(-2.17112e-008 -7.73199e-009 2.01983e-019)
(3.71114e-009 1.45617e-009 0)
(-6.05507e-010 -2.62195e-010 0)
(9.40918e-011 4.67245e-011 0)
(-1.86801e-011 -1.06579e-011 0)
(-3.39843e-014 3.45824e-012 0)
(-2.93961e-013 -9.59515e-013 0)
(2.33551e-012 2.69072e-013 -2.44481e-019)
(1.68605e-015 4.61979e-013 2.51241e-019)
(3.15326e-012 4.3317e-014 -2.58189e-019)
(4.28166e-012 -1.37284e-012 2.65329e-019)
(-1.40509e-012 1.0485e-012 0)
(-1.88044e-013 -9.38809e-013 0)
(2.49395e-012 1.65774e-012 2.2651e-021)
(1.70808e-012 -2.70654e-012 2.32774e-021)
(-2.8439e-012 -2.45097e-012 -4.78422e-021)
(-1.50422e-012 2.42077e-012 0)
(1.25579e-012 -2.87485e-012 1.0105e-020)
(2.74969e-012 -1.94459e-012 -1.03844e-020)
(2.26019e-013 -4.24057e-012 0)
(-2.24545e-012 -2.11203e-012 0)
(-2.20741e-012 -1.14621e-012 0)
(-2.62455e-013 5.92933e-013 0)
(2.63719e-012 6.8703e-013 0)
(2.51688e-011 -8.90941e-013 0)
(3.41653e-010 2.17385e-011 -5.02771e-020)
(6.60373e-009 3.83028e-010 5.16675e-020)
(7.81935e-008 6.27865e-009 0)
(1.2179e-006 7.95294e-008 -5.45646e-020)
(1.19147e-005 9.22297e-007 1.28244e-026)
(0.000146286 9.73494e-006 1.15248e-019)
(0.00115841 7.99603e-005 -5.92178e-020)
(0.010805 0.0006712 0)
(0.0673689 0.0039891 0)
(0.443876 0.0206783 0)
(1.93515 0.0759273 6.52e-020)
(7.80445 0.237582 -6.80029e-020)
(21.9903 0.705766 0)
(54.0791 1.47782 0)
(103.166 3.31153 0)
(159.239 4.07522 0)
(208.006 5.27579 0)
(255.873 0.140194 0)
(301.165 -1.82663 0)
(328.969 0.366185 0)
(310.355 11.1854 0)
(216.365 21.1456 0)
(64.2854 16.0331 1.45416e-019)
(7.60417 2.18972 -1.63961e-019)
(1.3827 0.204868 1.54784e-019)
(0.079308 0.0240098 -1.59325e-019)
(0.0521689 0.0101796 1.63503e-019)
(-0.00380258 -0.00220818 -1.68014e-019)
(0.00241703 0.000932914 0)
(-0.000380445 -0.000231892 -1.7744e-019)
(0.000107411 6.0636e-005 3.64695e-019)
(-1.92617e-005 -1.33702e-005 4.345e-026)
(4.16389e-006 2.88885e-006 -1.92572e-019)
(-7.42688e-007 -5.7289e-007 -1.97897e-019)
(1.4021e-007 1.10263e-007 2.0337e-019)
(-2.40988e-008 -2.01448e-008 2.08994e-019)
(4.18997e-009 3.58158e-009 -2.14774e-019)
(-6.90266e-010 -6.14608e-010 0)
(1.08946e-010 1.02531e-010 2.26817e-019)
(-2.10057e-011 -1.4477e-011 -2.33089e-019)
(5.20425e-013 1.5239e-012 0)
(-4.47058e-013 1.82705e-012 -2.46159e-019)
(2.61944e-012 -1.96925e-013 2.52966e-019)
(-3.68541e-013 1.79866e-012 0)
(2.86134e-012 4.29022e-012 2.67151e-019)
(4.74003e-012 -2.98837e-012 -2.74539e-019)
(-5.89305e-013 -1.98423e-012 0)
(-4.91291e-014 -1.21996e-012 0)
(2.56532e-012 3.3354e-012 2.34362e-021)
(1.38622e-012 -1.3075e-012 2.40844e-021)
(-2.77842e-012 6.76932e-013 4.95008e-021)
(-9.74764e-013 2.29845e-012 -1.01739e-020)
(1.10815e-012 -1.99379e-012 0)
(2.31058e-012 -6.6267e-013 0)
(3.0001e-013 -3.17735e-012 0)
(-2.00938e-012 -1.86361e-012 0)
(-2.08586e-012 -7.3721e-013 0)
(-1.22363e-013 1.78694e-012 2.39663e-020)
(2.12692e-012 1.45131e-012 -7.16799e-034)
(1.94015e-011 9.91401e-013 -2.53101e-020)
(2.20977e-010 -1.78896e-011 0)
(5.08865e-009 -2.78011e-010 -5.34587e-020)
(5.2398e-008 -4.34949e-009 5.4937e-020)
(9.43324e-007 -5.24209e-008 0)
(8.34799e-006 -6.81808e-007 0)
(0.000115047 -6.58292e-006 0)
(0.000857878 -6.44858e-005 -6.127e-020)
(0.00874844 -0.000501664 6.29653e-020)
(0.0533807 -0.00326024 0)
(0.38018 -0.0209808 6.62764e-020)
(1.67279 -0.109403 -6.83896e-020)
(7.07887 -0.41696 0)
(20.2466 -1.18065 0)
(51.1541 -2.64029 0)
(99.459 -3.46335 -6.14114e-020)
(160.271 -3.04641 1.51178e-020)
(205.825 0.190086 6.83298e-020)
(248.807 -3.43082 0)
(287.936 -7.09883 0)
(313.013 -6.96509 -8.9969e-020)
(295.804 1.05094 1.05301e-019)
(214.054 11.2691 0)
(69.5839 16.1147 0)
(9.07741 2.68964 0)
(1.57387 0.197982 0)
(0.136609 0.0547135 0)
(0.0529792 0.00551547 0)
(-0.00129756 -0.000257392 0)
(0.00227198 0.00054073 0)
(-0.000273225 -0.00012381 0)
(9.39945e-005 3.88449e-005 1.88669e-019)
(-1.52062e-005 -8.43929e-006 -1.93886e-019)
(3.54267e-006 1.93245e-006 0)
(-6.06715e-007 -3.83625e-007 0)
(1.18473e-007 7.57628e-008 0)
(-2.00433e-008 -1.39029e-008 -2.1624e-019)
(3.5452e-009 2.50694e-009 2.2222e-019)
(-5.80482e-010 -4.32814e-010 0)
(9.33154e-011 7.19199e-011 0)
(-1.89516e-011 -9.5813e-012 0)
(-4.05618e-013 3.30815e-012 0)
(-9.77244e-013 -8.25551e-013 0)
(2.37081e-012 1.76702e-012 0)
(6.45082e-013 4.926e-012 2.68974e-019)
(1.51806e-012 4.41669e-012 -2.76413e-019)
(3.971e-012 2.0378e-012 -2.84056e-019)
(-3.9596e-013 -1.60637e-013 2.91912e-019)
(-2.01568e-013 2.08362e-013 -2.99984e-019)
(2.34026e-012 2.12619e-012 0)
(1.6046e-012 -1.53771e-012 4.98367e-021)
(-2.71257e-012 -4.62633e-012 3.50279e-035)
(-1.62264e-012 1.53714e-013 -1.57894e-020)
(1.07822e-012 -1.31017e-012 1.08173e-020)
(2.73739e-012 -3.82341e-012 0)
(2.34777e-013 -5.39325e-012 -2.28478e-020)
(-2.1333e-012 -2.03705e-013 2.34796e-020)
(-2.06379e-012 3.17117e-013 0)
(-1.99353e-013 1.51015e-012 0)
(2.25995e-012 1.33522e-013 0)
(2.01442e-011 1.69381e-012 -2.61866e-020)
(2.24184e-010 2.24805e-011 5.38215e-020)
(5.22839e-009 3.84258e-010 -2.76549e-020)
(5.29304e-008 5.71371e-009 -5.68394e-020)
(9.67523e-007 8.06415e-008 5.84113e-020)
(8.38508e-006 8.19836e-007 0)
(0.000117506 9.93355e-006 0)
(0.000855924 6.84613e-005 6.33916e-020)
(0.00885033 0.00067519 -6.51457e-020)
(0.0528335 0.00329325 0)
(0.376388 0.0191757 0)
(1.64351 0.0451125 0)
(6.96653 0.128306 7.0154e-020)
(19.8993 0.333708 -7.50037e-020)
(50.3275 0.631603 -6.65534e-020)
(97.4901 1.51964 7.8163e-020)
(158.104 1.30213 0)
(202.424 2.14809 -5.78699e-020)
(244.391 0.741543 7.27367e-020)
(281.14 0.678881 0)
(304.873 3.4275 0)
(291.79 11.2734 0)
(214.738 12.2529 -7.91127e-020)
(73.9084 18.6453 1.27392e-019)
(10.237 3.19113 0)
(1.74925 0.356823 0)
(0.176855 0.0531531 0)
(0.0578256 0.0138945 0)
(-9.45927e-005 -0.000848032 1.79862e-019)
(0.00235246 0.000883138 -3.69681e-019)
(-0.00023902 -0.000185566 1.89949e-019)
(9.63987e-005 5.48255e-005 1.95202e-019)
(-1.46941e-005 -1.12971e-005 -2.006e-019)
(3.64084e-006 2.52159e-006 0)
(-6.07394e-007 -4.83234e-007 0)
(1.22172e-007 9.38697e-008 0)
(-2.04172e-008 -1.68146e-008 0)
(3.66622e-009 2.9926e-009 2.29915e-019)
(-5.96464e-010 -5.06961e-010 -2.36273e-019)
(9.64482e-011 8.32371e-011 0)
(-1.85454e-011 -1.48663e-011 2.49521e-019)
(-7.4963e-013 2.16134e-012 -2.56421e-019)
(-1.06193e-012 3.09294e-012 -2.63513e-019)
(3.30591e-012 1.96996e-012 -3.44807e-034)
(1.70882e-013 4.21882e-012 2.78289e-019)
(1.74144e-012 4.05145e-012 -2.85984e-019)
(4.36515e-012 -1.43977e-013 2.93893e-019)
(-2.75901e-013 -1.48972e-013 3.0202e-019)
(2.05684e-014 4.13971e-013 -6.20745e-019)
(2.42105e-012 1.93598e-012 0)
(1.17546e-012 -1.8779e-012 0)
(-2.68459e-012 -2.04635e-012 0)
(-9.01445e-013 7.80185e-013 0)
(9.39472e-013 -1.60352e-012 0)
(2.1719e-012 -3.26411e-012 0)
(4.52103e-013 -5.42752e-012 2.36381e-020)
(-1.69397e-012 -1.47943e-012 -2.42918e-020)
(-2.0628e-012 -6.02563e-013 0)
(-2.17335e-013 4.16931e-012 0)
(1.83885e-012 1.18438e-012 -2.63633e-020)
(1.66069e-011 -1.41262e-012 2.70924e-020)
(1.40322e-010 -1.33139e-011 0)
(4.29485e-009 -1.17179e-010 0)
(3.49408e-008 -2.59278e-009 0)
(7.87324e-007 -2.1961e-008 0)
(5.85706e-006 -4.60724e-007 0)
(9.55219e-005 -3.24126e-006 0)
(0.000636835 -4.98029e-005 0)
(0.00731166 -0.000306927 0)
(0.0421672 -0.00278077 0)
(0.326691 -0.0157951 -7.09706e-020)
(1.43312 -0.103298 7.32008e-020)
(6.3866 -0.391503 0)
(18.484 -1.21081 0)
(47.923 -2.76587 0)
(94.4284 -4.57184 6.61665e-020)
(155.374 -4.58536 -7.99721e-020)
(200.475 -3.37195 0)
(242.689 -3.37338 0)
(280.363 -2.88518 0)
(304.79 -2.0374 0)
(296.564 4.90791 0)
(221.153 5.69411 0)
(80.6595 20.1684 0)
(11.713 3.60948 0)
(1.95797 0.428605 0)
(0.229031 0.0782478 0)
(0.0616446 0.0120732 0)
(0.00184931 0.000297849 0)
(0.00236592 0.000682383 0)
(-0.0001653 -0.000115144 0)
(9.311e-005 4.24523e-005 -2.01954e-019)
(-1.23555e-005 -8.14069e-006 2.07539e-019)
(3.41868e-006 1.95683e-006 0)
(-5.36334e-007 -3.65555e-007 0)
(1.13263e-007 7.34278e-008 0)
(-1.83775e-008 -1.30334e-008 0)
(3.37785e-009 2.36012e-009 0)
(-5.4092e-010 -3.99376e-010 2.44445e-019)
(8.88649e-011 6.2289e-011 -2.51205e-019)
(-1.77652e-011 -1.08363e-011 0)
(-1.63569e-013 2.47467e-012 0)
(-1.68504e-012 1.45817e-012 0)
(2.41155e-012 1.94785e-012 0)
(1.19891e-012 3.94741e-012 0)
(2.58127e-013 3.05583e-012 0)
(3.63771e-012 2.26088e-012 0)
(4.00252e-013 1.09774e-012 0)
(-9.72408e-014 9.07221e-013 0)
(2.18824e-012 1.9565e-012 0)
(1.44014e-012 -3.31374e-012 0)
(-2.58329e-012 -2.98912e-012 0)
(-1.61773e-012 1.54847e-014 0)
(8.90566e-013 -9.50799e-013 0)
(2.58889e-012 -1.45542e-012 0)
(3.03216e-013 -5.95326e-012 0)
(-1.89605e-012 -1.15277e-012 0)
(-1.83382e-012 -1.67936e-012 0)
(-1.68776e-013 4.20622e-012 0)
(1.80552e-012 -3.93597e-013 0)
(1.70669e-011 2.19094e-013 0)
(1.36921e-010 1.70275e-011 0)
(4.3862e-009 3.77576e-010 0)
(3.42507e-008 4.06303e-009 0)
(8.0396e-007 7.81065e-008 0)
(5.7534e-006 6.06952e-007 0)
(9.73674e-005 9.72105e-006 0)
(0.000624886 5.28024e-005 0)
(0.00738905 0.00066388 0)
(0.041229 0.00256454 0)
(0.321465 0.0195998 0)
(1.39481 0.0256367 0)
(6.2379 0.045223 0)
(18.0354 -0.0484464 0)
(46.8823 -0.231277 0)
(92.3151 -0.950624 0)
(151.997 -0.092652 0)
(197.11 -1.16176 0)
(240.919 -1.49684 0)
(281.758 4.01612 0)
(309.464 6.13775 0)
(304.182 10.5596 0)
(227.132 5.10138 0)
(87.7501 20.8607 -8.33328e-020)
(13.0431 3.85016 9.88461e-020)
(2.17609 0.562152 0)
(0.274572 0.0842287 0)
(0.0676727 0.0161916 0)
(0.00343316 0.000305244 0)
(0.00248598 0.00085405 9.89196e-020)
(-0.000112526 -0.000113383 -1.01655e-019)
(9.45959e-005 4.52926e-005 0)
(-1.08861e-005 -7.95838e-006 0)
(3.39109e-006 1.98457e-006 0)
(-4.96351e-007 -3.54246e-007 0)
(1.10563e-007 7.2247e-008 -1.1651e-019)
(-1.72782e-008 -1.24912e-008 1.19732e-019)
(3.25962e-009 2.27337e-009 0)
(-5.11112e-010 -3.7824e-010 0)
(8.48827e-011 5.97026e-011 0)
(-1.55327e-011 -9.40593e-012 0)
(-9.82859e-013 3.49215e-012 0)
(-1.50595e-012 2.04989e-012 0)
(3.17494e-012 3.56543e-012 0)
(6.44403e-013 1.61313e-012 0)
(1.14162e-012 3.50241e-012 0)
(3.77395e-012 3.36072e-012 0)
(2.57072e-013 2.60326e-013 0)
(2.42724e-013 4.52842e-013 0)
(2.19977e-012 -1.0646e-012 -2.68491e-021)
(1.00901e-012 -4.0159e-012 8.27749e-021)
(-2.49386e-012 -2.23885e-012 -5.67093e-021)
(-8.88378e-013 1.14537e-012 0)
(8.06713e-013 -2.31911e-012 0)
(2.03062e-012 -2.92038e-012 0)
(5.14224e-013 -4.3159e-012 0)
(-1.43605e-012 -3.66478e-012 -2.59986e-020)
(-1.85387e-012 8.30796e-013 2.67175e-020)
(-3.22154e-013 4.95517e-012 2.74564e-020)
(1.40779e-012 8.31331e-013 -2.82156e-020)
(1.52476e-011 2.88925e-013 -2.89959e-020)
(7.90038e-011 -1.13672e-011 2.97978e-020)
(3.83358e-009 1.25575e-011 0)
(2.17941e-008 -1.69706e-009 3.14686e-020)
(6.89577e-007 2.89803e-009 -3.23389e-020)
(3.98725e-006 -3.29622e-007 0)
(8.23307e-005 -2.71862e-007 0)
(0.000468301 -3.96591e-005 -7.01928e-020)
(0.00625988 -9.82178e-005 5.86433e-024)
(0.0333226 -0.00265163 7.41311e-020)
(0.283188 -0.00863626 0)
(1.22613 -0.0916337 0)
(5.7722 -0.344074 7.80257e-020)
(16.881 -1.20105 -8.30411e-020)
(44.8792 -2.72098 0)
(89.6968 -5.17376 0)
(149.379 -4.09716 0)
(194.98 -3.5776 0)
(239.978 -2.30181 0)
(283.122 3.22871 0)
(314.154 3.17473 0)
(311.469 5.38569 -1.10292e-019)
(232.445 2.08946 1.30919e-019)
(96.5834 20.9054 -8.62534e-020)
(14.682 4.14244 1.93579e-019)
(2.42892 0.633122 -9.44572e-020)
(0.32658 0.103842 0)
(0.0738642 0.0166814 -9.68984e-020)
(0.00533955 0.00115146 1.99168e-019)
(0.00261699 0.000836245 -1.02337e-019)
(-5.00056e-005 -6.40095e-005 0)
(9.56701e-005 3.91209e-005 1.08072e-019)
(-8.84074e-006 -5.93525e-006 -2.22121e-019)
(3.29441e-006 1.68195e-006 1.14132e-019)
(-4.34936e-007 -2.81565e-007 -1.17288e-019)
(1.04808e-007 6.06999e-008 1.20532e-019)
(-1.54958e-008 -1.01801e-008 0)
(3.04049e-009 1.90304e-009 0)
(-4.61047e-010 -3.11998e-010 0)
(7.84385e-011 5.11399e-011 -1.34428e-019)
(-1.47231e-011 -6.96605e-012 1.38145e-019)
(-4.68973e-013 4.16145e-012 -1.41965e-019)
(-2.24719e-012 2.50444e-012 1.45891e-019)
(2.14433e-012 3.19347e-012 0)
(1.45219e-012 1.93764e-012 0)
(1.54867e-013 4.26721e-012 0)
(3.38637e-012 4.56429e-012 0)
(4.54464e-013 6.38493e-013 0)
(-1.2483e-013 5.28149e-013 0)
(2.12179e-012 2.90119e-012 -2.77749e-021)
(1.37946e-012 -5.81966e-012 -2.8543e-021)
(-2.45802e-012 -1.6307e-012 5.86647e-021)
(-1.53151e-012 3.3806e-012 0)
(7.25032e-013 -2.53958e-012 0)
(2.42024e-012 -1.52038e-012 0)
(3.71287e-013 -4.05107e-012 0)
(-1.66584e-012 -8.64039e-013 -1.34475e-020)
(-1.53051e-012 -1.47435e-012 4.14581e-020)
(-1.7742e-013 2.87409e-012 -8.26639e-036)
(1.35056e-012 6.06761e-013 -3.18562e-034)
(1.53205e-011 2.7879e-012 -5.99915e-020)
(6.91606e-011 9.38934e-012 7.23986e-032)
(3.89342e-009 3.48278e-010 3.0988e-030)
(1.99646e-008 2.2501e-009 3.25537e-020)
(6.9921e-007 7.21587e-008 -3.34539e-020)
(3.75269e-006 3.74668e-007 3.43791e-020)
(8.33529e-005 9.11545e-006 -3.53297e-020)
(0.000447998 3.69182e-005 3.63068e-020)
(0.00628195 0.000633939 0)
(0.0320658 0.00184995 0)
(0.277165 0.0194361 0)
(1.1837 0.00914829 0)
(5.60548 0.00606458 -8.07776e-020)
(16.3835 -0.341002 8.58994e-020)
(43.7441 -0.821598 0)
(87.6982 -2.28717 0)
(146.354 -0.219511 0)
(191.791 0.882466 6.70437e-020)
(237.957 2.73411 -1.57148e-019)
(282.569 9.42316 4.39712e-021)
(316.156 9.21977 1.07971e-019)
(315.144 5.66203 0)
(239.197 1.24383 0)
(103.155 22.0039 8.92366e-020)
(16.2 4.21163 -1.10354e-019)
(2.69874 0.728159 -9.47888e-020)
(0.379532 0.113932 9.7996e-020)
(0.0813567 0.0201549 0)
(0.0072247 0.0018477 1.03012e-019)
(0.0027953 0.000890936 -1.05865e-019)
(1.10064e-005 -2.84015e-005 0)
(9.73954e-005 3.69492e-005 0)
(-6.76684e-006 -4.68356e-006 1.1489e-019)
(3.24302e-006 1.5546e-006 -1.18067e-019)
(-3.74761e-007 -2.37986e-007 0)
(1.00308e-007 5.48384e-008 0)
(-1.37587e-008 -8.75889e-009 0)
(2.84965e-009 1.69131e-009 1.31679e-019)
(-4.13011e-010 -2.69977e-010 -1.35321e-019)
(7.24944e-011 4.582e-011 0)
(-1.24021e-011 -6.64617e-012 0)
(-1.2901e-012 3.78457e-012 -1.4686e-019)
(-1.97626e-012 2.26466e-012 1.50922e-019)
(2.60883e-012 3.67412e-012 0)
(1.24155e-012 -7.27335e-013 -1.59384e-019)
(9.62066e-013 3.42727e-012 -6.85253e-034)
(3.17725e-012 4.0891e-012 3.36643e-019)
(4.18767e-013 -1.22931e-012 -1.72976e-019)
(2.93758e-013 1.54484e-013 1.7776e-019)
(1.98263e-012 1.20637e-012 0)
(9.40137e-013 -6.35289e-012 0)
(-2.21976e-012 -1.87037e-012 0)
(-1.00337e-012 3.13492e-012 0)
(7.27987e-013 -5.9896e-013 -1.28177e-020)
(1.95463e-012 -2.68839e-012 1.31721e-020)
(4.89016e-013 -5.46035e-012 0)
(-1.29537e-012 -2.03854e-012 0)
(-1.72092e-012 -8.10458e-014 0)
(-2.91741e-013 4.53283e-012 0)
(1.20775e-012 1.51469e-012 0)
(1.46488e-011 2.75333e-012 0)
(2.79916e-011 -1.13206e-011 0)
(3.58078e-009 1.25972e-010 0)
(1.11867e-008 -2.05228e-009 0)
(6.29325e-007 2.45307e-008 0)
(2.51471e-006 -3.44587e-007 0)
(7.34463e-005 2.44367e-006 0)
(0.000336725 -3.72302e-005 0)
(0.0054849 9.05757e-005 0)
(0.0262691 -0.00229324 0)
(0.247743 -0.00154447 0)
(1.04859 -0.0857538 0)
(5.22812 -0.285665 0)
(15.4321 -1.1862 0)
(42.0601 -2.55335 0)
(85.51 -4.95244 0)
(144.368 -3.0215 0)
(189.996 0.418635 0)
(236.438 4.86159 0)
(280.94 10.4792 0)
(315.046 8.77322 0)
(314.86 1.33781 0)
(250.07 -6.03098 9.71767e-020)
(110.022 20.327 -2.53185e-019)
(17.8742 4.10997 1.14571e-019)
(3.00838 0.803977 9.80378e-020)
(0.437446 0.130248 -1.01428e-019)
(0.0898047 0.0227067 0)
(0.00923388 0.00281446 0)
(0.0029926 0.000893154 0)
(7.80817e-005 2.05709e-006 0)
(9.98239e-005 3.52681e-005 0)
(-4.49391e-006 -3.18476e-006 0)
(3.20405e-006 1.38479e-006 0)
(-3.08591e-007 -1.84042e-007 0)
(9.58595e-008 4.76314e-008 1.28983e-019)
(-1.18814e-008 -7.07565e-009 -1.3255e-019)
(2.65872e-009 1.44844e-009 1.36215e-019)
(-3.61463e-010 -2.22124e-010 -1.39982e-019)
(6.639e-011 3.78024e-011 0)
(-1.14439e-011 -6.04771e-012 0)
(-6.55292e-013 4.00465e-012 0)
(-2.70859e-012 3.85556e-012 0)
(1.33481e-012 2.77353e-012 0)
(1.62677e-012 -6.19615e-014 -1.64875e-019)
(6.87064e-013 2.81989e-012 1.69434e-019)
(2.80118e-012 2.2108e-012 0)
(1.29087e-013 -4.8873e-013 0)
(2.65314e-014 1.20872e-012 0)
(1.84835e-012 4.22567e-012 0)
(1.23354e-012 -6.85486e-012 0)
(-2.14874e-012 -2.28847e-012 0)
(-1.52616e-012 4.59711e-012 0)
(5.4419e-013 -2.69468e-012 1.32588e-020)
(2.29636e-012 -3.0899e-012 -1.36254e-020)
(4.22477e-013 -1.95813e-012 0)
(-1.43404e-012 -2.7366e-012 0)
(-1.33302e-012 -9.42507e-013 1.47874e-020)
(-1.73612e-013 5.59474e-012 -1.51963e-020)
(1.07878e-012 9.47064e-013 -3.12331e-020)
(1.44308e-011 4.98483e-012 6.41936e-020)
(1.45761e-011 -4.90168e-013 -3.29844e-020)
(3.6095e-009 3.24433e-010 0)
(8.71569e-009 7.2186e-010 0)
(6.31615e-007 6.99484e-008 0)
(2.20539e-006 1.65832e-007 -3.67872e-020)
(7.35325e-005 8.66316e-006 7.5609e-020)
(0.000311377 1.98046e-005 -3.885e-020)
(0.00545512 0.000604021 0)
(0.0248556 0.00109063 0)
(0.24121 0.0191061 0)
(1.00507 -0.0090532 0)
(5.0563 0.000244909 0)
(14.9243 -0.548007 0)
(40.9135 -1.11028 0)
(83.6117 -2.9661 0)
(142.14 0.0559346 -7.68357e-020)
(188.036 2.6836 8.80745e-020)
(234.839 8.14028 0)
(279.193 13.7714 0)
(313.409 12.0322 0)
(313.121 1.30435 0)
(255.98 -16.2086 0)
(116.709 15.0287 0)
(19.8167 4.08553 0)
(3.34788 0.895484 0)
(0.499727 0.146627 0)
(0.0992173 0.0260247 -1.07259e-019)
(0.0113527 0.00360197 1.10246e-019)
(0.00321652 0.00095031 0)
(0.000149587 2.80764e-005 0)
(0.000103767 3.63783e-005 1.19629e-019)
(-2.20056e-006 -1.83589e-006 -1.22938e-019)
(3.19926e-006 1.27407e-006 0)
(-2.38697e-007 -1.38543e-007 1.29831e-019)
(9.2056e-008 4.2517e-008 -1.33421e-019)
(-9.91033e-009 -5.64271e-009 0)
(2.4793e-009 1.26213e-009 0)
(-3.08654e-010 -1.81743e-010 0)
(6.07408e-011 3.42761e-011 0)
(-9.24111e-012 -5.07568e-012 -1.52919e-019)
(-1.00741e-012 2.02694e-012 1.57147e-019)
(-2.34093e-012 -6.76268e-013 1.61493e-019)
(1.51885e-012 6.45965e-013 -7.24507e-034)
(1.31907e-012 1.25899e-013 -1.70549e-019)
(1.02651e-012 2.87459e-012 1.75265e-019)
(2.78668e-012 1.67527e-012 -1.80112e-019)
(6.78517e-013 -1.45951e-012 1.85093e-019)
(6.29946e-013 6.29946e-013 -3.80422e-019)
(1.62683e-012 2.80975e-012 0)
(7.99952e-013 -6.64765e-012 3.15924e-021)
(-1.88357e-012 -3.46706e-012 -3.24661e-021)
(-1.05724e-012 3.52625e-012 0)
(4.91037e-013 -7.28052e-013 0)
(2.01794e-012 -1.13317e-012 0)
(4.98898e-013 -3.25715e-012 0)
(-1.28358e-012 -2.3474e-012 0)
(-1.38395e-012 -1.7396e-012 1.52958e-020)
(-2.51143e-013 4.50978e-012 -1.57188e-020)
(1.01406e-012 8.82496e-013 0)
(1.43985e-011 2.1218e-012 0)
(-1.6686e-011 -1.33496e-011 3.41185e-020)
(3.47263e-009 1.9502e-010 -3.5062e-020)
(2.34348e-009 -2.52285e-009 -3.60316e-020)
(5.94323e-007 4.17566e-008 4.3743e-028)
(1.31683e-006 -3.68804e-007 3.8052e-020)
(6.74122e-005 4.50697e-006 0)
(0.000231537 -3.41287e-005 4.01855e-020)
(0.00490468 0.000235762 -4.1297e-020)
(0.0205949 -0.00202662 0)
(0.218563 0.00393365 4.35231e-020)
(0.897242 -0.0789097 -8.93335e-020)
(4.74788 -0.227268 4.61121e-020)
(14.1327 -1.18947 -4.44306e-020)
(39.4717 -2.3905 4.87776e-020)
(81.6709 -5.01256 -8.26433e-020)
(140.308 -2.42848 1.91808e-020)
(186.672 0.748437 9.12391e-020)
(233.827 8.13692 0)
(278.099 15.6617 0)
(312.879 12.91 0)
(313.177 -0.210192 -1.22942e-019)
(260.866 -23.9722 1.50178e-019)
(124.196 5.72017 0)
(22.2765 4.35836 -1.01226e-019)
(3.73072 1.00106 1.09334e-019)
(0.566748 0.166171 -1.07922e-019)
(0.1097 0.0298028 1.37651e-022)
(0.013581 0.00444501 2.14573e-023)
(0.00347837 0.00102883 4.40821e-024)
(0.000223642 6.80931e-005 4.96047e-025)
(0.000109006 3.69888e-005 1.23743e-019)
(1.33993e-007 -4.41944e-007 -1.27164e-019)
(3.21935e-006 1.18255e-006 1.30681e-019)
(-1.66251e-007 -9.46832e-008 0)
(8.94127e-008 3.83456e-008 0)
(-7.96746e-009 -4.33273e-009 0)
(2.33396e-009 1.11096e-009 0)
(-2.57465e-010 -1.45126e-010 0)
(5.58063e-011 2.65176e-011 0)
(-8.54961e-012 -5.3712e-012 -1.58176e-019)
(-7.51328e-013 2.04209e-012 3.25101e-019)
(-3.33084e-012 3.73749e-012 1.33696e-033)
(9.50997e-013 3.76943e-012 -1.71665e-019)
(1.97146e-012 9.73152e-013 0)
(7.21761e-013 4.40661e-012 0)
(2.27767e-012 4.90855e-012 0)
(3.6361e-013 1.25915e-013 0)
(4.91179e-013 6.30478e-014 -1.96751e-019)
(1.58445e-012 3.59459e-012 0)
(1.04322e-012 -7.29817e-012 -3.26777e-021)
(-1.88524e-012 -2.52923e-012 1.00744e-020)
(-1.44721e-012 6.02363e-012 -6.902e-021)
(4.69521e-013 -2.62718e-012 0)
(2.19917e-012 -2.32667e-012 1.4578e-020)
(3.80995e-013 -2.90833e-013 -2.99623e-020)
(-1.38081e-012 -4.99625e-012 1.53955e-020)
(-1.1077e-012 -9.94811e-013 1.58212e-020)
(-1.14784e-013 6.08644e-012 -1.62587e-020)
(8.02745e-013 3.49049e-012 -1.67083e-020)
(1.41708e-011 5.0767e-012 5.15112e-020)
(-3.21448e-011 -9.24282e-012 -7.05809e-020)
(3.47607e-009 3.43725e-010 3.62664e-020)
(-4.70292e-010 -1.45975e-009 0)
(5.9116e-007 6.80794e-008 0)
(9.73113e-007 -9.62009e-008 0)
(6.68736e-005 8.54424e-006 -4.04475e-020)
(0.000203973 1.30977e-006 4.15661e-020)
(0.0048385 0.000581535 -4.2713e-020)
(0.0191457 0.000418069 4.38977e-020)
(0.212066 0.0187735 4.5022e-020)
(0.854066 -0.0176074 -4.6384e-020)
(4.57748 -0.0224265 0)
(13.6344 -0.732717 0)
(38.3434 -1.36626 0)
(79.8146 -4.00889 0)
(138.249 -1.26153 0)
(185.131 -0.215776 0)
(232.896 6.89748 -8.3363e-020)
(277.505 17.2311 1.08001e-019)
(313.138 14.9975 -1.21126e-019)
(314.512 0.529408 1.41213e-019)
(265.504 -26.2148 0)
(132.928 -7.11024 1.02675e-019)
(25.4106 5.1339 -1.32145e-019)
(4.14275 1.12923 1.08434e-019)
(0.638762 0.18786 -1.12491e-019)
(0.12105 0.0342849 0)
(0.0159323 0.00533292 -1.17934e-019)
(0.00376661 0.00111485 5.03966e-024)
(0.000302174 0.000108146 6.22871e-025)
(0.000114557 3.78528e-005 1.27993e-019)
(2.62251e-006 5.67906e-007 0)
(3.26857e-006 1.16474e-006 0)
(-9.04062e-008 -5.19273e-008 -1.38908e-019)
(8.76931e-008 3.48616e-008 1.42749e-019)
(-5.9331e-009 -3.06512e-009 0)
(2.20813e-009 9.81937e-010 1.50754e-019)
(-2.05979e-010 -1.10741e-010 -3.09845e-019)
(5.1345e-011 2.29539e-011 1.09264e-031)
(-6.07752e-012 -2.24863e-012 1.6361e-019)
(-5.8927e-013 1.90688e-012 0)
(-2.42168e-012 -2.30979e-012 0)
(5.73754e-013 2.01857e-012 1.77562e-019)
(1.55487e-012 1.45721e-012 -3.64944e-019)
(1.44938e-012 -4.05209e-013 -6.48078e-034)
(2.22627e-012 5.35649e-012 3.85408e-019)
(2.09978e-013 -2.31242e-013 -1.98033e-019)
(5.29903e-013 2.48016e-012 0)
(1.33399e-012 4.35985e-012 0)
(6.12384e-013 -4.30854e-012 -3.37992e-021)
(-1.51724e-012 -9.18953e-013 3.47339e-021)
(-1.06755e-012 3.19613e-012 -7.13888e-021)
(2.95792e-013 -2.82322e-013 7.3363e-021)
(2.05511e-012 -1.60348e-012 0)
(4.18029e-013 -5.09255e-012 1.54953e-020)
(-1.23337e-012 -2.37732e-012 -3.18477e-020)
(-1.05645e-012 -2.15911e-012 1.63642e-020)
(-1.59171e-013 4.19496e-012 1.68167e-020)
(7.91792e-013 2.18517e-012 -1.72818e-020)
(1.44586e-011 3.81081e-012 0)
(-5.6141e-011 -2.0114e-011 0)
(3.43389e-009 3.09919e-010 0)
(-5.3612e-009 -3.38306e-009 0)
(5.73706e-007 5.30537e-008 3.96144e-020)
(3.17596e-007 -4.46664e-007 -8.14198e-020)
(6.32376e-005 6.13334e-006 8.36714e-020)
(0.000145635 -3.63695e-005 -8.59852e-020)
(0.00446656 0.000350554 4.41816e-020)
(0.0159894 -0.00186437 4.53937e-020)
(0.194778 0.00806926 -4.66606e-020)
(0.76695 -0.0698214 0)
(4.32226 -0.184887 0)
(12.9675 -1.17676 0)
(37.0757 -2.2486 0)
(78.0046 -5.47538 0)
(136.445 -3.22953 0)
(183.905 -3.64341 3.98321e-020)
(232.372 3.69065 -9.2901e-020)
(277.416 16.5605 5.5507e-020)
(313.903 14.6637 0)
(316.321 1.80132 0)
(269.429 -24.435 -1.16661e-019)
(144.333 -14.7154 6.57214e-020)
(29.4104 6.17385 3.31991e-020)
(4.58943 1.27294 5.67581e-021)
(0.714644 0.211386 1.01073e-021)
(0.133454 0.0390983 1.18877e-019)
(0.0183732 0.0062039 -1.21981e-019)
(0.00409212 0.00122637 2.50719e-019)
(0.000383909 0.000141076 -1.28824e-019)
(0.000121534 4.02475e-005 0)
(5.14568e-006 1.75361e-006 0)
(3.38455e-006 1.20843e-006 1.39809e-019)
(-1.68794e-008 -1.22415e-008 -1.43675e-019)
(8.7376e-008 3.27395e-008 0)
(-3.91758e-009 -1.96417e-009 -1.51732e-019)
(2.1249e-009 8.92138e-010 3.11855e-019)
(-1.5624e-010 -8.12621e-011 -1.6024e-019)
(4.81208e-011 1.95269e-011 1.64671e-019)
(-5.53685e-012 -3.79534e-012 -1.69225e-019)
(-1.23941e-012 1.26042e-012 -1.73905e-019)
(-3.31224e-012 1.70305e-013 1.78714e-019)
(1.00233e-012 1.06734e-012 1.83656e-019)
(1.58417e-012 3.49575e-013 -1.88735e-019)
(1.06894e-012 2.49908e-012 0)
(2.47288e-012 5.83995e-012 0)
(3.53956e-013 -1.27974e-012 0)
(6.91468e-013 7.2749e-013 0)
(1.38251e-012 2.62286e-012 0)
(9.16405e-013 -6.11868e-012 0)
(-1.67072e-012 -3.76236e-012 0)
(-1.46378e-012 4.77973e-012 0)
(3.1009e-013 -1.13412e-012 0)
(2.10616e-012 -3.64381e-013 0)
(3.54754e-013 -2.91856e-013 0)
(-1.25621e-012 -3.96979e-012 0)
(-8.71598e-013 -1.17182e-012 0)
(-8.04002e-014 6.71141e-012 0)
(6.36999e-013 2.22633e-012 0)
(1.42122e-011 3.82473e-012 0)
(-7.12707e-011 -2.22599e-011 0)
(3.44158e-009 4.24229e-010 0)
(-8.29486e-009 -3.81174e-009 0)
(5.68794e-007 7.35545e-008 0)
(-3.26821e-008 -3.78816e-007 0)
(6.23784e-005 8.5119e-006 0)
(0.000118123 -1.75204e-005 0)
(0.00437896 0.000580379 0)
(0.0145803 -0.00026357 0)
(0.188595 0.0184842 0)
(0.725808 -0.0213246 -4.92777e-020)
(4.15962 -0.0152889 5.10176e-020)
(12.4935 -0.850783 0)
(35.9914 -1.58375 0)
(76.219 -5.12867 0)
(134.398 -3.48736 0)
(182.572 -6.39587 0)
(232.034 0.076268 0)
(277.627 13.3028 0)
(315.19 13.2437 0)
(318.645 5.80563 -6.85102e-020)
(272.749 -18.2003 8.2212e-020)
(155.422 -13.5133 0)
(33.7564 7.27748 0)
(5.08207 1.44955 0)
(0.795278 0.235885 0)
(0.146671 0.0440793 0)
(0.0209565 0.00707617 0)
(0.00444606 0.00135806 0)
(0.000469923 0.000177731 1.33241e-019)
(0.000129544 4.27743e-005 -1.36926e-019)
(7.77587e-006 3.21225e-006 0)
(3.51233e-006 1.24396e-006 0)
(5.9357e-008 2.13744e-008 0)