/*--------------------------------*- C++ -*----------------------------------*\
| =========                 |                                                 |
| \\      /  F ield         | OpenFOAM: The Open Source CFD Toolbox           |
|  \\    /   O peration     | Version:  5.x                                   |
|   \\  /    A nd           | Web:      www.OpenFOAM.org                      |
|    \\/     M anipulation  |                                                 |
\*---------------------------------------------------------------------------*/
/*   Windows 32 and 64 bit porting by blueCAPE: http://www.bluecape.com.pt   *\
|  Based on Windows porting (2.0.x v4) by Symscape: http://www.symscape.com   |
\*---------------------------------------------------------------------------*/
FoamFile
{
    version     2.0;
    format      ascii;
    class       volScalarField;
    location    "0.008";
    object      mag(U);
}
// * * * * * * * * * * * * * * * * * * * * * * * * * * * * * * * * * * * * * //

dimensions      [0 1 -1 0 0 0 0];

internalField   nonuniform List<scalar> 
100
(
22.08
82.0493
163.641
222.453
257.43
273.401
21.3173
78.684
162.377
229.115
270.678
288.664
21.1985
77.9262
159.816
222.918
263.061
282.297
20.9887
76.9306
159.492
224.634
265.579
285.895
20.889
76.3812
158.488
223.256
264.867
286.642
20.5718
75.0531
157.826
224.369
267.197
301.76
21.2574
78.0357
161.136
226.779
267.89
299.482
20.3567
74.2694
156.889
223.97
267.379
300.851
21.5501
79.7754
163.314
229.234
269.687
294.974
20.6976
75.8679
157.713
223.886
264.371
290.992
313.624
322.979
310.624
320.479
312.874
323.895
302.883
309.85
300.481
310.114
172.151
187.464
146.129
259.038
249.507
170.986
317.687
308.304
203.209
341.153
335.821
222.746
349.311
346.789
230.292
332.175
344.088
232.363
329.824
343.218
228.083
335.738
349.387
228.767
316.434
324.077
219.223
320.982
338.507
240.34
)
;

boundaryField
{
    inlet
    {
        type            calculated;
        value           nonuniform List<scalar> 10(20.5718 21.2574 20.3567 21.5501 20.6976 22.08 21.3173 21.1985 20.9887 20.889);
    }
    outlet
    {
        type            calculated;
        value           nonuniform List<scalar> 10(232.363 228.083 228.767 219.223 240.34 146.129 170.986 203.209 222.746 230.292);
    }
    bottom
    {
        type            symmetryPlane;
    }
    top
    {
        type            symmetryPlane;
    }
    obstacle
    {
        type            calculated;
        value           nonuniform List<scalar> 
12
(
273.401
288.664
282.297
285.895
286.642
172.151
259.038
317.687
341.153
349.311
313.624
322.979
)
;
    }
    defaultFaces
    {
        type            empty;
    }
}


// ************************************************************************* //
