/*--------------------------------*- C++ -*----------------------------------*\
| =========                 |                                                 |
| \\      /  F ield         | OpenFOAM: The Open Source CFD Toolbox           |
|  \\    /   O peration     | Version:  5.x                                   |
|   \\  /    A nd           | Web:      www.OpenFOAM.org                      |
|    \\/     M anipulation  |                                                 |
\*---------------------------------------------------------------------------*/
/*   Windows 32 and 64 bit porting by blueCAPE: http://www.bluecape.com.pt   *\
|  Based on Windows porting (2.0.x v4) by Symscape: http://www.symscape.com   |
\*---------------------------------------------------------------------------*/
FoamFile
{
    version     2.0;
    format      ascii;
    class       volScalarField;
    location    "0.008";
    object      p;
}
// * * * * * * * * * * * * * * * * * * * * * * * * * * * * * * * * * * * * * //

dimensions      [1 -1 -2 0 0 0 0];

internalField   nonuniform List<scalar> 
100
(
89694.3
71847.9
49786
37461.2
32285.7
31125.3
89871.3
72561.4
50997.3
38607
33099.7
31644.4
89915.9
72731.6
51140.2
38742.1
33130.9
31693.7
89976.4
72980.1
51569
39161.5
33414.2
31900.3
90002.6
73088
51707.1
39312
33508.1
31984.4
90081.8
73397.1
52162.3
39726.5
33684.4
32151.8
89910.9
72794.6
51293.9
39008.7
33332.4
32092.4
90207.2
73723.9
52344.8
40052.7
33664.9
32304.9
89671.2
72257.1
50006.2
37420.8
31383.8
30343
90264.9
73761.1
53119.3
40908.1
34879.1
33969.3
30503.3
29932.2
30764
30176.5
30950.3
30334.5
29639.1
29296.6
33058.2
32510
29312.7
28898
22943.8
29304.8
29234
23227.9
29383.2
29268.4
23241.7
29469
29402.8
23317.1
29570.9
29492.2
23347.1
29738.9
29694.9
23358.5
29890.2
29641.7
23194.1
30075.3
29661.6
23250.2
29044.4
28674
22566.1
31940.3
31016.8
22657.1
)
;

boundaryField
{
    inlet
    {
        type            zeroGradient;
    }
    outlet
    {
        type            zeroGradient;
    }
    bottom
    {
        type            symmetryPlane;
    }
    top
    {
        type            symmetryPlane;
    }
    obstacle
    {
        type            zeroGradient;
    }
    defaultFaces
    {
        type            empty;
    }
}


// ************************************************************************* //
