/*--------------------------------*- C++ -*----------------------------------*\
| =========                 |                                                 |
| \\      /  F ield         | OpenFOAM: The Open Source CFD Toolbox           |
|  \\    /   O peration     | Version:  5.x                                   |
|   \\  /    A nd           | Web:      www.OpenFOAM.org                      |
|    \\/     M anipulation  |                                                 |
\*---------------------------------------------------------------------------*/
/*   Windows 32 and 64 bit porting by blueCAPE: http://www.bluecape.com.pt   *\
|  Based on Windows porting (2.0.x v4) by Symscape: http://www.symscape.com   |
\*---------------------------------------------------------------------------*/
FoamFile
{
    version     2.0;
    format      ascii;
    class       surfaceScalarField;
    location    "0.008";
    object      phi;
}
// * * * * * * * * * * * * * * * * * * * * * * * * * * * * * * * * * * * * * //

dimensions      [1 0 -1 0 0 0 0];

internalField   nonuniform List<scalar> 
174
(
14.3498
-0.632974
22.1344
0.345158
25.1197
1.96166
22.8436
1.69746
19.7516
1.51284
0.620675
8.76952
-0.369713
13.4864
0.93547
15.6382
2.98366
14.27
2.40792
12.0493
2.35134
1.05105
5.99284
-0.360472
9.45245
1.01602
11.0469
3.50831
10.196
2.84387
8.75159
2.95411
1.26076
3.88578
-0.264644
6.11424
1.12864
7.18764
3.76159
6.67036
3.01385
5.75584
3.25738
1.4405
2.6058
-0.221055
4.14364
1.15425
4.89367
3.89659
4.54434
3.12043
3.93229
3.47302
1.52714
10.7624
0.165333
17.1458
1.35084
20.3912
4.30765
18.959
3.33359
17.4568
3.32353
1.70564
15.8359
19.9276
0.0450752
30.9572
2.24435
36.0833
5.45266
33.2451
3.80736
30.5265
3.13122
1.84877
27.6143
33.6332
1.23985
54.0693
1.66348
64.6115
6.78208
60.3034
5.01493
55.0937
4.20927
2.66911
49.5675
64.3498
0.654916
98.7369
3.19602
112.743
6.30888
102.065
4.01102
90.8174
2.29626
0.811421
81.7071
108.67
172.257
206.36
191.664
172.99
155.793
15.3119
0.170172
0.0983621
14.7855
27.0059
0.417221
0.316227
26.431
48.812
0.493556
0.335466
48.129
80.396
0.129541
0.0140407
79.2554
153.898
152.251
9.9108
-0.62172
10.8438
-0.00427996
-4.24599
8.33419
-0.491543
8.98789
0.352732
-5.48884
6.74563
-0.234955
7.31374
0.449122
-5.39892
4.82846
-0.00906067
5.31275
0.406372
-5.15585
3.36941
0.171371
3.72724
0.359766
-4.91521
14.7267
0.190018
16.283
-0.396918
-3.91091
26.1616
0.247638
27.9701
-1.52508
-2.7927
47.6602
0.109908
47.6959
-2.22145
-4.9675
77.9971
-0.422943
79.5157
-5.85107
-9.51526
150.493
146.824
)
;

boundaryField
{
    inlet
    {
        type            calculated;
        value           nonuniform List<scalar> 10(-3.03177 -5.56529 -9.49698 -17.7941 -30.5373 -3.81659 -2.4704 -1.64416 -1.08935 -0.725119);
    }
    outlet
    {
        type            calculated;
        value           nonuniform List<scalar> 10(7.74129 13.5764 24.4196 40.8261 79.2445 5.92292 4.61129 3.57554 2.61304 1.81073);
    }
    bottom
    {
        type            symmetryPlane;
        value           uniform 0;
    }
    top
    {
        type            symmetryPlane;
        value           uniform 0;
    }
    obstacle
    {
        type            calculated;
        value           nonuniform List<scalar> 
12
(
18.0603
10.9153
8.01651
5.20953
3.59532
-8.85352
-8.11042
-6.77374
-4.89676
-3.44215
0.141979
0.191144
)
;
    }
    defaultFaces
    {
        type            empty;
        value           nonuniform 0();
    }
}


// ************************************************************************* //
