/*--------------------------------*- C++ -*----------------------------------*\
| =========                 |                                                 |
| \\      /  F ield         | OpenFOAM: The Open Source CFD Toolbox           |
|  \\    /   O peration     | Version:  5.x                                   |
|   \\  /    A nd           | Web:      www.OpenFOAM.org                      |
|    \\/     M anipulation  |                                                 |
\*---------------------------------------------------------------------------*/
/*   Windows 32 and 64 bit porting by blueCAPE: http://www.bluecape.com.pt   *\
|  Based on Windows porting (2.0.x v4) by Symscape: http://www.symscape.com   |
\*---------------------------------------------------------------------------*/
FoamFile
{
    version     2.0;
    format      ascii;
    class       volScalarField;
    location    "0.008";
    object      T;
}
// * * * * * * * * * * * * * * * * * * * * * * * * * * * * * * * * * * * * * //

dimensions      [0 0 0 1 0 0 0];

internalField   nonuniform List<scalar> 
100
(
336.663
321.785
273.378
276.106
292.87
346.087
336.981
322.026
272.807
277.158
298.449
353.458
337.02
322.542
273.902
276.808
293.915
347.336
337.124
322.63
273.785
277.264
294.882
349.009
337.159
322.864
274.175
277.376
294.047
348.592
337.279
322.986
274.889
278.273
293.755
326.591
337.028
322.433
274.556
278.278
294.55
328.494
337.436
323.391
274.963
278.523
294.017
328.778
336.736
321.831
272.492
275.132
290.878
327.459
337.461
323.459
276.527
280.566
298.184
336.779
352.716
359.625
356.24
361.819
356.11
361.048
353.77
358.517
364.175
368.661
377.535
376.906
371.718
399.186
393.283
378.956
406.218
404.101
390.163
405.238
402.75
392.699
402.978
398.122
392.549
378.819
386.302
392.897
377.771
386.036
388.664
375.631
387.086
386.083
372.477
383.439
381.903
382.253
390.77
384.193
)
;

boundaryField
{
    inlet
    {
        type            zeroGradient;
    }
    outlet
    {
        type            zeroGradient;
    }
    bottom
    {
        type            symmetryPlane;
    }
    top
    {
        type            symmetryPlane;
    }
    obstacle
    {
        type            zeroGradient;
    }
    defaultFaces
    {
        type            empty;
    }
}


// ************************************************************************* //
