/*--------------------------------*- C++ -*----------------------------------*\
| =========                 |                                                 |
| \\      /  F ield         | OpenFOAM: The Open Source CFD Toolbox           |
|  \\    /   O peration     | Version:  5.x                                   |
|   \\  /    A nd           | Web:      www.OpenFOAM.org                      |
|    \\/     M anipulation  |                                                 |
\*---------------------------------------------------------------------------*/
/*   Windows 32 and 64 bit porting by blueCAPE: http://www.bluecape.com.pt   *\
|  Based on Windows porting (2.0.x v4) by Symscape: http://www.symscape.com   |
\*---------------------------------------------------------------------------*/
FoamFile
{
    version     2.0;
    format      ascii;
    class       volVectorField;
    location    "0.008";
    object      U;
}
// * * * * * * * * * * * * * * * * * * * * * * * * * * * * * * * * * * * * * //

dimensions      [0 1 -1 0 0 0 0];

internalField   nonuniform List<vector> 
100
(
(22.0197 1.63059 0)
(81.5072 9.41615 0)
(162.22 21.5161 0)
(220.664 28.1574 0)
(255.565 30.9301 0)
(271.747 30.033 0)
(21.297 -0.929987 0)
(78.5656 -4.31483 0)
(162.126 -9.02349 -4.50571e-018)
(228.807 -11.8674 8.24676e-018)
(270.419 -11.8373 0)
(288.307 -14.3546 3.41698e-017)
(21.1893 0.626025 0)
(77.8201 4.06397 0)
(159.471 10.4941 0)
(222.472 14.0911 0)
(262.54 16.5525 0)
(281.981 13.3525 1.2536e-017)
(20.9872 -0.253296 0)
(76.927 -0.748529 -1.06437e-018)
(159.491 -0.403149 1.73902e-018)
(224.634 -0.069807 0)
(265.562 3.03087 0)
(285.895 0.26676 9.41592e-018)
(20.8874 0.259839 -3.26872e-019)
(76.3535 2.05577 5.2772e-019)
(158.36 6.35975 0)
(223.089 8.642 -2.77973e-018)
(264.601 11.87 4.63664e-018)
(286.529 8.0477 6.97883e-018)
(20.5663 -0.47722 0)
(75.0144 -2.40821 0)
(157.758 -4.62729 0)
(224.302 -5.46767 0)
(267.19 -1.92193 0)
(301.755 -1.71488 0)
(21.2515 0.497326 0)
(77.9445 3.77291 0)
(160.772 10.8247 0)
(226.344 14.0369 0)
(267.437 15.5794 0)
(299.161 13.8713 0)
(20.3526 -0.408457 0)
(74.221 -2.68164 0)
(156.815 -4.82615 0)
(223.874 -6.56928 0)
(267.331 -5.08297 0)
(300.82 -4.29582 0)
(21.5287 0.960194 0)
(79.618 5.00939 0)
(162.63 14.9283 0)
(228.342 20.2024 0)
(268.673 23.3639 0)
(294.113 22.5309 0)
(20.6764 -0.936567 0)
(75.7715 -3.82262 0)
(157.348 -10.7192 0)
(223.269 -16.605 0)
(263.47 -21.809 0)
(289.749 -26.8596 0)
(313.616 -2.19548 0)
(322.966 -2.94081 0)
(310.393 11.9813 0)
(320.309 10.459 0)
(312.838 -4.72545 0)
(323.845 -5.67398 0)
(302.152 21.0335 0)
(309.287 18.6607 0)
(299.135 -28.4074 0)
(308.678 -29.8127 0)
(172.151 -0.121654 1.49439e-016)
(187.076 12.0505 -4.65292e-017)
(145.675 11.5173 0)
(258.827 -10.4398 1.14244e-016)
(249.43 -6.22168 1.63107e-017)
(170.524 -12.5575 -6.46338e-018)
(317.671 -3.23492 0)
(308.225 6.97278 0)
(203.203 -1.56664 0)
(341.134 -3.59543 6.30105e-017)
(335.821 -0.0495992 -9.32316e-018)
(222.65 -6.52522 0)
(349.304 2.19679 2.32195e-017)
(346.768 3.85756 0)
(230.271 -3.13441 0)
(332.163 -2.88832 0)
(344.065 -3.97351 0)
(232.097 -11.1163 0)
(329.705 8.84829 0)
(343.216 1.22523 0)
(228.082 0.676732 0)
(335.658 -7.30796 0)
(349.141 -13.1058 0)
(228.595 -8.87376 0)
(316.127 13.9324 0)
(324.037 -5.10118 0)
(219.05 -8.71408 0)
(319.456 -31.2601 0)
(337.176 -29.9925 0)
(239.912 -14.3355 0)
)
;

boundaryField
{
    inlet
    {
        type            zeroGradient;
    }
    outlet
    {
        type            zeroGradient;
    }
    bottom
    {
        type            symmetryPlane;
    }
    top
    {
        type            symmetryPlane;
    }
    obstacle
    {
        type            zeroGradient;
    }
    defaultFaces
    {
        type            empty;
    }
}


// ************************************************************************* //
