/*--------------------------------*- C++ -*----------------------------------*\
| =========                 |                                                 |
| \\      /  F ield         | OpenFOAM: The Open Source CFD Toolbox           |
|  \\    /   O peration     | Version:  5.x                                   |
|   \\  /    A nd           | Web:      www.OpenFOAM.org                      |
|    \\/     M anipulation  |                                                 |
\*---------------------------------------------------------------------------*/
/*   Windows 32 and 64 bit porting by blueCAPE: http://www.bluecape.com.pt   *\
|  Based on Windows porting (2.0.x v4) by Symscape: http://www.symscape.com   |
\*---------------------------------------------------------------------------*/
FoamFile
{
    version     2.0;
    format      ascii;
    class       volScalarField;
    location    "0.0065";
    object      mag(U);
}
// * * * * * * * * * * * * * * * * * * * * * * * * * * * * * * * * * * * * * //

dimensions      [0 1 -1 0 0 0 0];

internalField   nonuniform List<scalar> 
100
(
13.4899
55.4006
142.35
223.463
277.488
301.594
13.4898
55.4015
142.34
223.588
277.469
301.047
13.4897
55.4025
142.33
223.717
277.47
301.069
13.4896
55.4033
142.322
223.822
277.499
302.753
13.4895
55.4038
142.317
223.903
277.536
306.814
13.4894
55.4051
142.304
224.057
277.5
320.672
13.489
55.4083
142.269
224.329
277.178
317.929
13.4881
55.4145
142.196
224.506
276.707
314.638
13.4867
55.4257
142.068
224.321
276.118
312.182
13.486
55.4324
141.987
224.107
275.645
310.796
337.296
352.866
333.373
347.478
328.266
340.669
324.372
334.526
322.281
331.433
114.093
139.988
87.7333
229.979
210.296
102.598
320.213
287.29
127.986
351.377
318.261
143.668
363.091
326.572
145.522
362.293
328.328
140.296
355.596
328.368
137.903
346.067
318.771
144.205
337.146
309.625
150.202
333.115
306.479
153.243
)
;

boundaryField
{
    inlet
    {
        type            calculated;
        value           nonuniform List<scalar> 10(13.4894 13.489 13.4881 13.4867 13.486 13.4899 13.4898 13.4897 13.4896 13.4895);
    }
    outlet
    {
        type            calculated;
        value           nonuniform List<scalar> 10(140.296 137.903 144.205 150.202 153.243 87.7333 102.598 127.986 143.668 145.522);
    }
    bottom
    {
        type            symmetryPlane;
    }
    top
    {
        type            symmetryPlane;
    }
    obstacle
    {
        type            calculated;
        value           nonuniform List<scalar> 
12
(
301.594
301.047
301.069
302.753
306.814
114.093
229.979
320.213
351.377
363.091
337.296
352.866
)
;
    }
    defaultFaces
    {
        type            empty;
    }
}


// ************************************************************************* //
