/*--------------------------------*- C++ -*----------------------------------*\
| =========                 |                                                 |
| \\      /  F ield         | OpenFOAM: The Open Source CFD Toolbox           |
|  \\    /   O peration     | Version:  5.x                                   |
|   \\  /    A nd           | Web:      www.OpenFOAM.org                      |
|    \\/     M anipulation  |                                                 |
\*---------------------------------------------------------------------------*/
/*   Windows 32 and 64 bit porting by blueCAPE: http://www.bluecape.com.pt   *\
|  Based on Windows porting (2.0.x v4) by Symscape: http://www.symscape.com   |
\*---------------------------------------------------------------------------*/
FoamFile
{
    version     2.0;
    format      ascii;
    class       volScalarField;
    location    "0.0065";
    object      p;
}
// * * * * * * * * * * * * * * * * * * * * * * * * * * * * * * * * * * * * * //

dimensions      [1 -1 -2 0 0 0 0];

internalField   nonuniform List<scalar> 
100
(
94527.6
77952.6
55646.2
38616.9
35083.5
34606.9
94527.6
77952.7
55644.9
38619.7
35064.7
34499.4
94527.6
77952.9
55643.9
38622.6
35048.2
34382.9
94527.6
77953.1
55643.3
38625.1
35034.2
34263.4
94527.6
77953.2
55642.8
38626.9
35019
34175.5
94527.6
77953.5
55641.9
38630.9
34970.7
33983.4
94527.5
77954.3
55639.9
38642.4
34817.5
33909.2
94527.3
77956.3
55640
38655.9
34491.7
33844.7
94526.8
77961.9
55634.8
38705.9
34454.4
33999.8
94526.4
77965.8
55625.3
38776.5
34570.1
34220.9
32815.1
31952.7
32831.4
31864.1
33069.7
32367.8
33451
32960.8
33785.3
33398.4
32566.7
32282.8
16320.9
32014.3
31851.5
16320.7
32223.4
32094
16333.3
32704.7
32620.3
16333.8
33050.3
32870.8
16331.9
32040.1
32096.7
16342.9
31693
30520.2
15721
31720
30043.5
15533.8
32324.8
30818.3
16459.8
32812
31509.7
17146.7
)
;

boundaryField
{
    inlet
    {
        type            zeroGradient;
    }
    outlet
    {
        type            zeroGradient;
    }
    bottom
    {
        type            symmetryPlane;
    }
    top
    {
        type            symmetryPlane;
    }
    obstacle
    {
        type            zeroGradient;
    }
    defaultFaces
    {
        type            empty;
    }
}


// ************************************************************************* //
