/*--------------------------------*- C++ -*----------------------------------*\
| =========                 |                                                 |
| \\      /  F ield         | OpenFOAM: The Open Source CFD Toolbox           |
|  \\    /   O peration     | Version:  5.x                                   |
|   \\  /    A nd           | Web:      www.OpenFOAM.org                      |
|    \\/     M anipulation  |                                                 |
\*---------------------------------------------------------------------------*/
/*   Windows 32 and 64 bit porting by blueCAPE: http://www.bluecape.com.pt   *\
|  Based on Windows porting (2.0.x v4) by Symscape: http://www.symscape.com   |
\*---------------------------------------------------------------------------*/
FoamFile
{
    version     2.0;
    format      ascii;
    class       surfaceScalarField;
    location    "0.0065";
    object      phi;
}
// * * * * * * * * * * * * * * * * * * * * * * * * * * * * * * * * * * * * * //

dimensions      [1 0 -1 0 0 0 0];

internalField   nonuniform List<scalar> 
174
(
9.57579
0.00215492
18.416
-0.0133127
23.7293
0.0663832
21.5991
-0.265502
19.4279
1.33822
0.118966
6.40379
0.00351028
12.3149
-0.0216327
15.8757
0.102715
14.4346
-0.400506
12.938
2.03832
0.311413
4.28253
0.0043549
8.23501
-0.0268266
10.6215
0.122294
9.64706
-0.471178
8.63184
2.41873
0.521721
2.86393
0.00488647
5.50685
-0.0300992
7.10543
0.133229
6.45171
-0.512505
5.79637
2.60665
0.711734
1.91523
0.00522608
3.68253
-0.0321844
4.75254
0.13978
4.31956
-0.542232
3.92982
2.68985
0.849831
8.12913
0.00649582
15.6292
-0.0402569
20.1832
0.15783
18.345
-0.663095
17.5791
2.07627
0.0912655
16.5386
14.4564
0.00798461
27.788
-0.0499621
35.926
0.165514
32.5226
-0.753604
30.8824
0.794512
-0.630978
28.8964
25.7093
0.00766633
49.3954
-0.0460586
63.9218
0.165139
57.5021
-0.770789
54.0865
-0.314952
-0.897316
50.5085
45.723
0.00361985
87.7802
-0.0208445
113.596
0.0910008
101.979
-0.453278
95.5101
-0.472243
-0.618225
89.1422
81.3129
156.032
201.876
181.342
169.711
158.64
16.0062
-0.264234
-0.627965
15.1857
28.1584
-0.371735
-0.72873
27.2932
49.3123
-0.327958
-0.524555
47.8478
86.9526
-0.198652
-0.27531
84.4705
154.748
150.265
6.90534
-0.892287
9.52303
-3.88369
-9.45948
8.32947
-0.862049
8.88159
-4.46074
-11.4967
7.42498
-0.696093
7.79269
-4.22724
-10.2478
5.50631
-0.334187
5.90712
-3.46194
-9.03996
3.81866
-0.134264
4.07589
-2.97999
-8.34985
15.6583
-1.21423
17.1948
-7.41995
-6.48929
26.4948
-1.71574
25.1108
-10.7012
-9.57611
45.726
-1.10409
38.8282
-7.94307
-10.0865
81.4017
-0.528323
72.9157
-3.3502
-5.2093
145.559
136.465
)
;

boundaryField
{
    inlet
    {
        type            calculated;
        value           nonuniform List<scalar> 10(-2.09415 -3.72387 -6.62163 -11.7738 -20.936 -2.46705 -1.6498 -1.10328 -0.737804 -0.493397);
    }
    outlet
    {
        type            calculated;
        value           nonuniform List<scalar> 10(3.71581 6.37635 11.7534 22.7455 42.4631 2.82874 2.15284 1.7481 1.31131 0.8973);
    }
    bottom
    {
        type            symmetryPlane;
        value           uniform 0;
    }
    top
    {
        type            symmetryPlane;
        value           uniform 0;
    }
    obstacle
    {
        type            calculated;
        value           nonuniform List<scalar> 
12
(
17.6218
11.7366
7.83193
5.25097
3.54889
-6.37084
-8.25427
-7.31724
-5.40586
-3.77622
0.192958
0.542209
)
;
    }
    defaultFaces
    {
        type            empty;
        value           nonuniform 0();
    }
}


// ************************************************************************* //
