/*--------------------------------*- C++ -*----------------------------------*\
| =========                 |                                                 |
| \\      /  F ield         | OpenFOAM: The Open Source CFD Toolbox           |
|  \\    /   O peration     | Version:  5.x                                   |
|   \\  /    A nd           | Web:      www.OpenFOAM.org                      |
|    \\/     M anipulation  |                                                 |
\*---------------------------------------------------------------------------*/
/*   Windows 32 and 64 bit porting by blueCAPE: http://www.bluecape.com.pt   *\
|  Based on Windows porting (2.0.x v4) by Symscape: http://www.symscape.com   |
\*---------------------------------------------------------------------------*/
FoamFile
{
    version     2.0;
    format      ascii;
    class       volScalarField;
    location    "0.0065";
    object      T;
}
// * * * * * * * * * * * * * * * * * * * * * * * * * * * * * * * * * * * * * //

dimensions      [0 0 0 1 0 0 0];

internalField   nonuniform List<scalar> 
100
(
342.46
326.707
279.803
289.318
329.527
393.617
342.46
326.706
279.801
289.317
329.753
393.272
342.46
326.706
279.8
289.32
329.971
392.808
342.46
326.706
279.798
289.336
329.694
392.617
342.46
326.706
279.797
289.379
328.454
392.673
342.46
326.706
279.796
289.411
327.905
377.945
342.459
326.707
279.794
289.438
328.309
378.691
342.459
326.707
279.799
289.479
328.482
379.457
342.459
326.711
279.806
289.565
329.065
380.683
342.458
326.714
279.801
289.696
329.613
381.723
400.69
405.65
399.606
406.795
400.302
407.831
401.044
409.083
401.924
410.26
384.147
388.748
332.085
396.113
401.151
337.019
418.871
417.934
349.017
422.476
417.039
351.562
422.383
414.106
348.612
416.036
413.543
345.352
411.514
406.507
337.53
410.452
402.617
335.56
412.223
403.821
342.901
413.806
405.291
348.141
)
;

boundaryField
{
    inlet
    {
        type            zeroGradient;
    }
    outlet
    {
        type            zeroGradient;
    }
    bottom
    {
        type            symmetryPlane;
    }
    top
    {
        type            symmetryPlane;
    }
    obstacle
    {
        type            zeroGradient;
    }
    defaultFaces
    {
        type            empty;
    }
}


// ************************************************************************* //
