/*--------------------------------*- C++ -*----------------------------------*\
| =========                 |                                                 |
| \\      /  F ield         | OpenFOAM: The Open Source CFD Toolbox           |
|  \\    /   O peration     | Version:  5.x                                   |
|   \\  /    A nd           | Web:      www.OpenFOAM.org                      |
|    \\/     M anipulation  |                                                 |
\*---------------------------------------------------------------------------*/
/*   Windows 32 and 64 bit porting by blueCAPE: http://www.bluecape.com.pt   *\
|  Based on Windows porting (2.0.x v4) by Symscape: http://www.symscape.com   |
\*---------------------------------------------------------------------------*/
FoamFile
{
    version     2.0;
    format      ascii;
    class       volVectorField;
    location    "0.0065";
    object      U;
}
// * * * * * * * * * * * * * * * * * * * * * * * * * * * * * * * * * * * * * //

dimensions      [0 1 -1 0 0 0 0];

internalField   nonuniform List<vector> 
100
(
(13.4899 0.000235341 0)
(55.4006 -0.00232494 0)
(142.35 0.0193475 0)
(223.463 -0.162436 0)
(277.484 1.36561 0)
(301.594 0.0867449 0)
(13.4898 0.000615131 0)
(55.4015 -0.00606199 0)
(142.34 0.0488106 0)
(223.587 -0.398218 0)
(277.448 3.41438 0)
(301.046 0.60685 0)
(13.4897 0.000850205 0)
(55.4025 -0.0083635 0)
(142.33 0.0644309 0)
(223.716 -0.513303 0)
(277.432 4.54601 0)
(301.066 1.43738 0)
(13.4896 0.000997921 0)
(55.4033 -0.00981309 0)
(142.322 0.0729527 0)
(223.821 -0.575891 0)
(277.451 5.13065 0)
(302.747 1.90069 0)
(13.4895 0.00109196 0)
(55.4038 -0.0107338 0)
(142.317 0.0780058 0)
(223.902 -0.620135 0)
(277.482 5.48371 0)
(306.8 2.94145 0)
(13.4894 0.0012703 0)
(55.4051 -0.012532 0)
(142.304 0.0858383 0)
(224.056 -0.711835 0)
(277.455 5.00947 0)
(320.669 1.51497 0)
(13.489 0.00164952 0)
(55.4083 -0.0165092 0)
(142.269 0.0953846 0)
(224.327 -0.86926 0)
(277.165 2.67315 0)
(317.925 -1.63035 0)
(13.4881 0.00182684 0)
(55.4145 -0.0177161 0)
(142.196 0.102354 0)
(224.504 -0.977758 0)
(276.707 -0.210039 0)
(314.623 -3.03255 0)
(13.4867 0.00113687 0)
(55.4257 -0.0105254 0)
(142.068 0.0709028 0)
(224.32 -0.690543 0)
(276.116 -1.17799 0)
(312.172 -2.54596 0)
(13.486 0.000253715 0)
(55.4324 -0.00233351 0)
(141.987 0.0181194 0)
(224.107 -0.187723 0)
(275.645 -0.412459 0)
(310.795 -0.802983 0)
(337.285 -2.71388 0)
(352.778 -7.90755 0)
(333.334 -5.13563 0)
(347.303 -11.0108 0)
(328.226 -5.10461 0)
(340.559 -8.66829 0)
(324.354 -3.39716 0)
(334.491 -4.86453 0)
(322.279 -1.024 0)
(331.43 -1.37276 0)
(113.089 -15.1055 0)
(138.994 -16.6543 0)
(87.051 -10.9203 0)
(229.803 -8.98935 0)
(209.783 -14.6891 0)
(100.466 -20.8057 0)
(320.032 -10.7577 0)
(286.767 -17.3274 0)
(126.141 -21.6528 0)
(351.344 -4.86268 0)
(318.045 -11.7356 0)
(142.479 -18.4406 0)
(363.089 -1.22377 0)
(326.414 -10.1548 0)
(144.578 -16.5446 0)
(362.2 -8.20362 0)
(327.437 -24.1712 0)
(139.639 -13.5668 0)
(354.931 -21.741 0)
(325.267 -45.0187 0)
(136.895 -16.6482 0)
(345.755 -14.6957 0)
(316.824 -35.1835 0)
(142.747 -20.4542 0)
(337.062 -7.50836 0)
(309.253 -15.1717 0)
(149.772 -11.3576 0)
(333.11 -1.9384 0)
(306.461 -3.3435 0)
(153.222 -2.57388 0)
)
;

boundaryField
{
    inlet
    {
        type            zeroGradient;
    }
    outlet
    {
        type            zeroGradient;
    }
    bottom
    {
        type            symmetryPlane;
    }
    top
    {
        type            symmetryPlane;
    }
    obstacle
    {
        type            zeroGradient;
    }
    defaultFaces
    {
        type            empty;
    }
}


// ************************************************************************* //
