/*--------------------------------*- C++ -*----------------------------------*\
| =========                 |                                                 |
| \\      /  F ield         | OpenFOAM: The Open Source CFD Toolbox           |
|  \\    /   O peration     | Version:  5.x                                   |
|   \\  /    A nd           | Web:      www.OpenFOAM.org                      |
|    \\/     M anipulation  |                                                 |
\*---------------------------------------------------------------------------*/
/*   Windows 32 and 64 bit porting by blueCAPE: http://www.bluecape.com.pt   *\
|  Based on Windows porting (2.0.x v4) by Symscape: http://www.symscape.com   |
\*---------------------------------------------------------------------------*/
FoamFile
{
    version     2.0;
    format      ascii;
    class       volScalarField;
    location    "0.0095";
    object      mag(U);
}
// * * * * * * * * * * * * * * * * * * * * * * * * * * * * * * * * * * * * * //

dimensions      [0 1 -1 0 0 0 0];

internalField   nonuniform List<scalar> 
100
(
2.02476
6.62065
14.138
26.6931
44.1405
65.6763
90.3293
116.992
144.995
173.256
201.683
229.229
255.769
281.417
303.642
319.55
323.712
316.056
300.552
290.058
1.52818
4.96609
10.7938
20.9578
35.537
53.7618
74.7229
97.4295
121.276
145.19
169.242
192.725
215.746
237.711
257.758
275.651
290.923
304.786
316.31
340.249
341.603
346.622
353.75
358.068
360.244
360.203
359.71
358.725
357.254
355.877
354.348
353.023
351.837
350.754
349.626
348.47
347.06
345.298
342.904
339.929
246.84
248.7
251.412
253.195
253.705
253.613
253.832
254.391
254.813
255.204
255.676
256.303
257.065
257.896
258.718
259.437
259.834
259.836
258.278
229.028
328.879
323.342
319.67
316.235
312.568
308.78
305.202
302.146
299.772
298.003
296.576
295.576
294.96
294.354
293.481
292.17
290.489
288.124
284.329
274.315
)
;

boundaryField
{
    inlet
    {
        type            calculated;
        value           nonuniform List<scalar> 2(1.52818 2.02476);
    }
    outlet
    {
        type            calculated;
        value           nonuniform List<scalar> 2(274.315 229.028);
    }
    bottom
    {
        type            symmetryPlane;
    }
    top
    {
        type            symmetryPlane;
    }
    obstacle
    {
        type            calculated;
        value           nonuniform List<scalar> 
22
(
290.058
246.84
341.603
346.622
353.75
358.068
360.244
360.203
359.71
358.725
357.254
355.877
354.348
353.023
351.837
350.754
349.626
348.47
347.06
345.298
342.904
339.929
)
;
    }
    defaultFaces
    {
        type            empty;
    }
}


// ************************************************************************* //
