/*--------------------------------*- C++ -*----------------------------------*\
| =========                 |                                                 |
| \\      /  F ield         | OpenFOAM: The Open Source CFD Toolbox           |
|  \\    /   O peration     | Version:  5.x                                   |
|   \\  /    A nd           | Web:      www.OpenFOAM.org                      |
|    \\/     M anipulation  |                                                 |
\*---------------------------------------------------------------------------*/
/*   Windows 32 and 64 bit porting by blueCAPE: http://www.bluecape.com.pt   *\
|  Based on Windows porting (2.0.x v4) by Symscape: http://www.symscape.com   |
\*---------------------------------------------------------------------------*/
FoamFile
{
    version     2.0;
    format      ascii;
    class       volScalarField;
    location    "0.0095";
    object      p;
}
// * * * * * * * * * * * * * * * * * * * * * * * * * * * * * * * * * * * * * //

dimensions      [1 -1 -2 0 0 0 0];

internalField   nonuniform List<scalar> 
100
(
99127.5
97692.6
94932.6
90432.7
84535.9
77756.5
70574.5
63378
56460
49899.1
43852.7
38327.4
33353.7
28879.4
24901.8
21910.4
20302.1
20541.8
21707.1
24408.1
99344.1
98238.8
96079.4
92349.5
87203
81203.7
74816
68444.6
62414.4
56805.3
51784.1
47366.8
43370
39998.1
37041.5
34811.7
32906.3
31200.5
29927.7
29145.6
25596.4
25240.7
24686.4
24334.1
24031.4
23910.3
23972.7
23977.8
24063.6
24120.2
24196.8
24259.1
24304.1
24337.8
24364.3
24406.3
24452.7
24539.5
24673.1
24911
34936
34720.1
34302.4
33875.3
33550.8
33264.7
33050.7
32781.4
32504.8
32231.7
31965.7
31709.2
31452.9
31192.7
30923.3
30633.1
30293.5
29841.4
29123.1
28509.4
25590.7
25938.5
26008.9
26023.8
26063.7
26143.1
26250
26363.4
26475.4
26575.8
26643.9
26733.4
26801.6
26823.4
26820.2
26807.9
26796.3
26811.3
26903.9
27075.4
)
;

boundaryField
{
    inlet
    {
        type            zeroGradient;
    }
    outlet
    {
        type            zeroGradient;
    }
    bottom
    {
        type            symmetryPlane;
    }
    top
    {
        type            symmetryPlane;
    }
    obstacle
    {
        type            zeroGradient;
    }
    defaultFaces
    {
        type            empty;
    }
}


// ************************************************************************* //
