/*--------------------------------*- C++ -*----------------------------------*\
| =========                 |                                                 |
| \\      /  F ield         | OpenFOAM: The Open Source CFD Toolbox           |
|  \\    /   O peration     | Version:  5.x                                   |
|   \\  /    A nd           | Web:      www.OpenFOAM.org                      |
|    \\/     M anipulation  |                                                 |
\*---------------------------------------------------------------------------*/
/*   Windows 32 and 64 bit porting by blueCAPE: http://www.bluecape.com.pt   *\
|  Based on Windows porting (2.0.x v4) by Symscape: http://www.symscape.com   |
\*---------------------------------------------------------------------------*/
FoamFile
{
    version     2.0;
    format      ascii;
    class       surfaceScalarField;
    location    "0.0095";
    object      phi;
}
// * * * * * * * * * * * * * * * * * * * * * * * * * * * * * * * * * * * * * //

dimensions      [1 0 -1 0 0 0 0];

internalField   nonuniform List<scalar> 
137
(
6.34861
0.0188641
13.7052
0.0943642
26.6173
0.227676
44.0617
0.499127
62.8585
0.963354
80.6157
1.62931
95.5013
2.46917
106.394
3.4259
113.499
4.43786
115.974
5.47056
114.676
6.29273
111.829
7.21527
105.462
7.95823
95.6512
8.48548
84.9582
8.80351
75.1622
8.46588
64.0635
7.02484
55.0958
4.83884
49.2523
0.366287
-2.67228
8.20798
19.1041
40.1198
73.1615
113.986
158.383
202.806
244.365
282.393
314.395
341.919
369.94
388.514
400.813
418.574
439.166
448.553
457.506
446.397
407.676
401.607
395.263
389.291
383.702
378.521
372.96
367.921
362.822
357.808
352.844
347.778
342.733
337.546
332.333
327.046
321.601
316.213
310.683
304.999
299.203
57.4227
-5.63116
59.9552
-5.12868
62.1762
-4.81034
64.3038
-4.61007
66.4678
-4.44913
68.9369
-4.29902
72.0891
-4.16438
75.2372
-4.07417
78.2086
-4.01651
80.9657
-3.98472
83.5583
-3.98425
86.0181
-4.00451
88.3302
-4.0173
90.4599
-4.02243
92.3691
-4.01798
93.9313
-4.01254
95.0146
-4.01804
95.2668
-4.08477
93.3878
-4.27972
-4.47887
284.896
270.577
257.352
244.959
232.839
221.233
211.138
203.432
198.242
194.736
192.137
190.444
188.876
187.04
184.865
182.242
179.111
175.002
170.352
)
;

boundaryField
{
    inlet
    {
        type            calculated;
        value           nonuniform List<scalar> 2(-3.40896 -2.72236);
    }
    outlet
    {
        type            calculated;
        value           nonuniform List<scalar> 2(166.582 86.4617);
    }
    bottom
    {
        type            symmetryPlane;
        value           uniform 0;
    }
    top
    {
        type            symmetryPlane;
        value           uniform 0;
    }
    obstacle
    {
        type            calculated;
        value           nonuniform List<scalar> 
22
(
43.2035
-54.39
4.83778
4.79613
4.755
4.71597
4.66224
4.66608
4.61637
4.59548
4.57277
4.53973
4.51853
4.48018
4.45715
4.41365
4.3881
4.3448
4.31238
4.27423
4.23769
4.20705
)
;
    }
    defaultFaces
    {
        type            empty;
        value           nonuniform 0();
    }
}


// ************************************************************************* //
