/*--------------------------------*- C++ -*----------------------------------*\
| =========                 |                                                 |
| \\      /  F ield         | OpenFOAM: The Open Source CFD Toolbox           |
|  \\    /   O peration     | Version:  5.x                                   |
|   \\  /    A nd           | Web:      www.OpenFOAM.org                      |
|    \\/     M anipulation  |                                                 |
\*---------------------------------------------------------------------------*/
/*   Windows 32 and 64 bit porting by blueCAPE: http://www.bluecape.com.pt   *\
|  Based on Windows porting (2.0.x v4) by Symscape: http://www.symscape.com   |
\*---------------------------------------------------------------------------*/
FoamFile
{
    version     2.0;
    format      ascii;
    class       volScalarField;
    location    "0.0095";
    object      T;
}
// * * * * * * * * * * * * * * * * * * * * * * * * * * * * * * * * * * * * * //

dimensions      [0 0 0 1 0 0 0];

internalField   nonuniform List<scalar> 
100
(
347.554
346.124
343.309
338.619
332.22
324.469
315.759
306.263
297.339
285.241
279.309
268.055
255.929
249.815
246.508
239.985
237.576
240.236
243.821
266.892
347.773
346.671
344.48
340.628
335.127
328.409
320.849
312.737
304.964
295.243
290.578
279.696
271.441
268.643
263.743
252.732
245.049
241.55
243.066
257.277
259.981
261.419
262.09
263.389
264.731
263.711
267.145
267.85
269.319
271.032
272.198
274.308
275.384
277.692
278.821
281.278
282.981
285.391
287.956
290.883
437.138
436.522
436.386
437.012
437.432
436.566
433.18
426.696
420.813
415.88
411.887
408.672
406.008
403.808
402.031
400.382
399.199
396.602
395.592
386.75
299.695
311.161
321.666
331.495
341.926
353.688
365.782
375.826
382.143
384.679
384.751
383.854
381.743
379.648
378.147
377.206
376.958
377.133
379.186
376.809
)
;

boundaryField
{
    inlet
    {
        type            zeroGradient;
    }
    outlet
    {
        type            zeroGradient;
    }
    bottom
    {
        type            symmetryPlane;
    }
    top
    {
        type            symmetryPlane;
    }
    obstacle
    {
        type            zeroGradient;
    }
    defaultFaces
    {
        type            empty;
    }
}


// ************************************************************************* //
