/*--------------------------------*- C++ -*----------------------------------*\
| =========                 |                                                 |
| \\      /  F ield         | OpenFOAM: The Open Source CFD Toolbox           |
|  \\    /   O peration     | Version:  5.x                                   |
|   \\  /    A nd           | Web:      www.OpenFOAM.org                      |
|    \\/     M anipulation  |                                                 |
\*---------------------------------------------------------------------------*/
/*   Windows 32 and 64 bit porting by blueCAPE: http://www.bluecape.com.pt   *\
|  Based on Windows porting (2.0.x v4) by Symscape: http://www.symscape.com   |
\*---------------------------------------------------------------------------*/
FoamFile
{
    version     2.0;
    format      ascii;
    class       volVectorField;
    location    "0.0095";
    object      U;
}
// * * * * * * * * * * * * * * * * * * * * * * * * * * * * * * * * * * * * * //

dimensions      [0 1 -1 0 0 0 0];

internalField   nonuniform List<vector> 
100
(
(2.02395 -0.0573504 0)
(6.62009 -0.0863418 1.61745e-017)
(14.138 -0.0183065 -8.62298e-018)
(26.6913 0.303732 0)
(44.1263 1.11837 0)
(65.6241 2.61745 8.92193e-018)
(90.1964 4.89867 4.27114e-017)
(116.722 7.95464 -3.97884e-018)
(144.519 11.7368 -2.89773e-017)
(172.51 16.0555 9.32585e-018)
(200.627 20.6176 -6.89901e-017)
(227.826 25.3219 6.9562e-017)
(254.015 29.8974 0)
(279.379 33.8048 6.08775e-017)
(301.533 35.727 -9.71174e-017)
(317.644 34.8543 7.98474e-017)
(322.528 27.6578 -1.04248e-016)
(315.725 14.464 0)
(300.524 -4.0761 -1.30804e-016)
(289.342 -20.3651 1.0834e-016)
(1.5244 -0.107314 -9.26247e-018)
(4.95257 -0.366188 9.13882e-018)
(10.7487 -0.984768 -2.17125e-017)
(20.8373 -2.2443 5.06396e-017)
(35.2708 -4.34126 -3.38036e-017)
(53.2488 -7.40915 -3.39948e-017)
(73.8271 -11.5357 2.76526e-017)
(95.9811 -16.7371 0)
(119.075 -23.0019 4.8721e-017)
(142.013 -30.2056 -5.68491e-017)
(164.815 -38.4585 -4.73111e-017)
(186.833 -47.2924 9.5729e-017)
(208.127 -56.829 -4.62332e-017)
(228.053 -67.0721 8.45644e-017)
(245.856 -77.421 -8.37051e-017)
(261.529 -87.0962 -7.52563e-017)
(274.437 -96.5428 7.74141e-017)
(285.972 -105.425 -6.98863e-017)
(294.969 -114.216 2.13387e-016)
(316.524 -124.826 -1.47639e-016)
(317.901 -125.027 0)
(322.99 -125.793 5.00512e-016)
(330.219 -126.864 -1.02173e-015)
(334.592 -127.518 5.18325e-016)
(336.794 -127.849 0)
(336.753 -127.841 0)
(336.258 -127.756 5.3379e-016)
(335.27 -127.586 -1.08434e-015)
(333.793 -127.329 5.48675e-016)
(332.416 -127.074 0)
(330.89 -126.783 0)
(329.576 -126.51 5.76395e-016)
(328.408 -126.245 -1.16989e-015)
(327.348 -125.981 5.93735e-016)
(326.25 -125.695 0)
(325.13 -125.389 0)
(323.759 -125.024 6.25497e-016)
(322.04 -124.583 -1.27506e-015)
(319.692 -124.018 6.48461e-016)
(316.766 -123.333 0)
(234.881 -75.9029 3.89408e-016)
(237.448 -73.959 -6.45517e-016)
(241.139 -71.1345 3.16699e-016)
(243.788 -68.374 3.05741e-016)
(245.051 -65.6965 -3.0142e-016)
(245.704 -62.8428 2.91212e-016)
(246.715 -59.683 -2.83869e-016)
(248.043 -56.4728 -2.71344e-016)
(249.138 -53.478 5.25872e-016)
(250.113 -50.7194 -2.55468e-016)
(251.093 -48.1913 2.45784e-016)
(252.163 -45.8816 -4.79852e-016)
(253.312 -43.7658 3.50984e-016)
(254.476 -41.8598 -9.675e-019)
(255.575 -40.2037 -1.11848e-016)
(256.507 -38.876 1.08325e-016)
(257.046 -37.962 -1.60319e-016)
(257.116 -37.4997 1.02325e-018)
(255.531 -37.5708 5.20182e-017)
(225.859 -37.9691 0)
(307.814 -115.81 -2.92214e-016)
(304.361 -109.154 6.08796e-016)
(302.693 -102.79 -6.37548e-016)
(301.109 -96.6325 3.32165e-016)
(299.079 -90.8326 0)
(296.651 -85.6935 0)
(294.093 -81.5938 1.89737e-016)
(291.654 -78.9304 -5.89661e-016)
(289.486 -77.8554 4.02401e-016)
(287.555 -78.2183 0)
(285.692 -79.6097 0)
(284.117 -81.5031 0)
(282.96 -83.2755 -1.0489e-016)
(282.009 -84.3538 2.10669e-016)
(281.105 -84.3248 -1.06034e-016)
(280.142 -82.9705 1.06856e-016)
(279.184 -80.2493 -5.39925e-017)
(277.859 -76.2238 -1.09397e-016)
(275.288 -71.1284 5.55465e-017)
(266.506 -64.9866 0)
)
;

boundaryField
{
    inlet
    {
        type            zeroGradient;
    }
    outlet
    {
        type            zeroGradient;
    }
    bottom
    {
        type            symmetryPlane;
    }
    top
    {
        type            symmetryPlane;
    }
    obstacle
    {
        type            zeroGradient;
    }
    defaultFaces
    {
        type            empty;
    }
}


// ************************************************************************* //
