/*--------------------------------*- C++ -*----------------------------------*\
| =========                 |                                                 |
| \\      /  F ield         | OpenFOAM: The Open Source CFD Toolbox           |
|  \\    /   O peration     | Version:  5.x                                   |
|   \\  /    A nd           | Web:      www.OpenFOAM.org                      |
|    \\/     M anipulation  |                                                 |
\*---------------------------------------------------------------------------*/
/*   Windows 32 and 64 bit porting by blueCAPE: http://www.bluecape.com.pt   *\
|  Based on Windows porting (2.0.x v4) by Symscape: http://www.symscape.com   |
\*---------------------------------------------------------------------------*/
FoamFile
{
    version     2.0;
    format      ascii;
    class       volScalarField;
    location    "0.0065";
    object      mag(U);
}
// * * * * * * * * * * * * * * * * * * * * * * * * * * * * * * * * * * * * * //

dimensions      [0 1 -1 0 0 0 0];

internalField   nonuniform List<scalar> 
100
(
0.0284875
0.138778
0.511802
1.71649
5.08633
13.0149
28.0658
51.2351
81.4606
116.355
153.719
190.584
226.443
258.389
285.308
305.766
319.485
320.12
300.415
268.378
0.0202568
0.0970559
0.354523
1.18696
3.54371
9.28694
20.7841
39.3231
64.2894
93.8641
126.418
158.675
189.993
219.357
246.089
270.786
291.465
304.096
309.253
311.346
312.934
317.42
322.118
324.661
325.26
324.81
324.016
322.857
321.42
320.017
318.631
317.259
315.915
314.651
313.549
312.685
312.075
311.787
311.727
311.956
181.147
178.396
174.927
168.692
157.544
138.662
109.532
74.5074
44.5911
23.686
10.832
4.19195
1.40664
0.432524
0.129914
0.0397229
0.012595
0.00415942
0.00142802
0.000397934
313.407
313.294
312.81
311.123
308.096
303.429
295.917
283.24
259.994
214.808
144.678
72.8527
27.3521
8.42315
2.34385
0.633937
0.175075
0.0505454
0.0153903
0.00373771
)
;

boundaryField
{
    inlet
    {
        type            calculated;
        value           nonuniform List<scalar> 2(0.0202568 0.0284875);
    }
    outlet
    {
        type            calculated;
        value           nonuniform List<scalar> 2(0.00373771 0.000397934);
    }
    bottom
    {
        type            symmetryPlane;
    }
    top
    {
        type            symmetryPlane;
    }
    obstacle
    {
        type            calculated;
        value           nonuniform List<scalar> 
22
(
268.378
181.147
312.934
317.42
322.118
324.661
325.26
324.81
324.016
322.857
321.42
320.017
318.631
317.259
315.915
314.651
313.549
312.685
312.075
311.787
311.727
311.956
)
;
    }
    defaultFaces
    {
        type            empty;
    }
}


// ************************************************************************* //
