/*--------------------------------*- C++ -*----------------------------------*\
| =========                 |                                                 |
| \\      /  F ield         | OpenFOAM: The Open Source CFD Toolbox           |
|  \\    /   O peration     | Version:  5.x                                   |
|   \\  /    A nd           | Web:      www.OpenFOAM.org                      |
|    \\/     M anipulation  |                                                 |
\*---------------------------------------------------------------------------*/
/*   Windows 32 and 64 bit porting by blueCAPE: http://www.bluecape.com.pt   *\
|  Based on Windows porting (2.0.x v4) by Symscape: http://www.symscape.com   |
\*---------------------------------------------------------------------------*/
FoamFile
{
    version     2.0;
    format      ascii;
    class       volScalarField;
    location    "0.0065";
    object      p;
}
// * * * * * * * * * * * * * * * * * * * * * * * * * * * * * * * * * * * * * //

dimensions      [1 -1 -2 0 0 0 0];

internalField   nonuniform List<scalar> 
100
(
99990
99952.9
99823.1
99399.1
98190.8
95304.2
89819.4
81849.9
72337.4
62346.3
52825.1
44147.6
36604.1
30124.7
25051
20901.2
18154.4
16557
16702.2
17601
99992.9
99966.9
99876.9
99584.2
98742.3
96673.8
92496.7
86016.2
78061.6
69540.2
61461
54144.6
48014.1
42926.7
38832.3
35448.4
33085.4
31171
30831.6
30733.1
30424.3
30066
29513.8
29128.5
28955.2
28927.2
28949
28988.6
29069.7
29158.5
29248.6
29338.8
29427.9
29510.3
29578.7
29623.5
29638.6
29634
29589.8
29523.4
22285
22135.9
21631.8
20831
19680.1
17897
15558.5
13261.6
11710
10846.9
10369.3
10137.2
10045.1
10014
10004.3
10001.3
10000.4
10000.1
10000.1
10000
29260.1
29152.5
29084.3
29054.6
29054.5
28994.7
28721.6
27922.7
25952.4
21743.7
16847.4
13082
11078.7
10314.9
10084.9
10022.8
10006.3
10001.8
10000.6
10000.2
)
;

boundaryField
{
    inlet
    {
        type            zeroGradient;
    }
    outlet
    {
        type            zeroGradient;
    }
    bottom
    {
        type            symmetryPlane;
    }
    top
    {
        type            symmetryPlane;
    }
    obstacle
    {
        type            zeroGradient;
    }
    defaultFaces
    {
        type            empty;
    }
}


// ************************************************************************* //
