/*--------------------------------*- C++ -*----------------------------------*\
| =========                 |                                                 |
| \\      /  F ield         | OpenFOAM: The Open Source CFD Toolbox           |
|  \\    /   O peration     | Version:  5.x                                   |
|   \\  /    A nd           | Web:      www.OpenFOAM.org                      |
|    \\/     M anipulation  |                                                 |
\*---------------------------------------------------------------------------*/
/*   Windows 32 and 64 bit porting by blueCAPE: http://www.bluecape.com.pt   *\
|  Based on Windows porting (2.0.x v4) by Symscape: http://www.symscape.com   |
\*---------------------------------------------------------------------------*/
FoamFile
{
    version     2.0;
    format      ascii;
    class       surfaceScalarField;
    location    "0.0065";
    object      phi;
}
// * * * * * * * * * * * * * * * * * * * * * * * * * * * * * * * * * * * * * //

dimensions      [1 0 -1 0 0 0 0];

internalField   nonuniform List<scalar> 
137
(
0.103374
0.000560783
0.389143
0.00280892
1.3196
0.0122725
3.99865
0.0486516
10.5913
0.168958
23.8013
0.497225
43.8926
1.20596
66.3549
2.43487
86.4114
4.1511
100.352
6.15879
108.043
8.15707
108.324
10.1453
101.959
11.1923
94.3696
11.8971
85.442
12.7646
73.0511
12.4196
61.4672
11.4623
47.7451
9.15157
34.3623
5.74709
1.58959
0.126656
0.49797
1.77426
5.6982
16.2015
39.8137
82.3228
139.069
201.269
260.12
312.254
351.351
376.585
410.149
434.582
442.12
423.768
374.588
339.994
323.154
318.821
314.237
309.582
304.918
300.329
295.727
291.159
286.566
282.016
277.441
272.938
268.489
264.156
259.992
255.952
252.229
248.556
245.251
242.095
239.252
24.4963
-8.26237
27.3747
-7.9437
29.0496
-7.58547
29.2529
-7.27952
27.1689
-6.98869
22.0741
-6.54641
14.9832
-5.45633
8.45185
-3.32301
4.28397
-1.80974
1.99267
-1.10973
0.810759
-0.568023
0.289374
-0.217988
0.0950986
-0.0646416
0.0302597
-0.0170304
0.00964055
-0.00444034
0.00314123
-0.00119558
0.00105857
-0.00033852
0.000368613
-0.000101483
0.000128617
-3.22873e-005
-1.04477e-005
234.264
233.982
233.056
229.864
224.825
217.765
206.867
186.92
146.946
94.5376
46.9021
17.6848
5.31105
1.41592
0.36896
0.0984982
0.0275137
0.00810517
0.0024582
)
;

boundaryField
{
    inlet
    {
        type            calculated;
        value           nonuniform List<scalar> 2(-0.0416203 -0.0351612);
    }
    outlet
    {
        type            calculated;
        value           nonuniform List<scalar> 2(0.000705189 4.11564e-005);
    }
    bottom
    {
        type            symmetryPlane;
        value           uniform 0;
    }
    top
    {
        type            symmetryPlane;
        value           uniform 0;
    }
    obstacle
    {
        type            calculated;
        value           nonuniform List<scalar> 
22
(
27.8812
-21.2488
3.75684
3.72553
3.68225
3.64681
3.60987
3.57322
3.52999
3.48753
3.4432
3.3999
3.35298
3.30948
3.26183
3.21836
3.17177
3.12765
3.08555
3.04096
3.00384
2.96071
)
;
    }
    defaultFaces
    {
        type            empty;
        value           nonuniform 0();
    }
}


// ************************************************************************* //
