/*--------------------------------*- C++ -*----------------------------------*\
| =========                 |                                                 |
| \\      /  F ield         | OpenFOAM: The Open Source CFD Toolbox           |
|  \\    /   O peration     | Version:  5.x                                   |
|   \\  /    A nd           | Web:      www.OpenFOAM.org                      |
|    \\/     M anipulation  |                                                 |
\*---------------------------------------------------------------------------*/
/*   Windows 32 and 64 bit porting by blueCAPE: http://www.bluecape.com.pt   *\
|  Based on Windows porting (2.0.x v4) by Symscape: http://www.symscape.com   |
\*---------------------------------------------------------------------------*/
FoamFile
{
    version     2.0;
    format      ascii;
    class       volScalarField;
    location    "0.0065";
    object      T;
}
// * * * * * * * * * * * * * * * * * * * * * * * * * * * * * * * * * * * * * //

dimensions      [0 0 0 1 0 0 0];

internalField   nonuniform List<scalar> 
100
(
348.422
348.385
348.255
347.831
346.616
343.69
338
329.289
318.115
304.885
293.219
274.618
267.185
257.311
240.318
229.148
227.788
232.598
262.431
306.372
348.425
348.399
348.309
348.017
347.172
345.083
340.796
333.866
324.826
314.117
304.465
289.407
285.282
275.102
257.773
252.242
255.222
271.941
315.617
337.219
359.632
359.971
360.565
361.515
363.399
365.656
368.533
371.196
374.296
377.282
380.673
383.673
387.136
390.032
393.207
395.932
398.26
400.932
402.29
404.478
397.503
390.894
379.742
369.978
358.948
343.963
324.837
305.3
292.314
285.456
281.641
279.808
279.094
278.855
278.78
278.757
278.749
278.747
278.746
278.746
405.538
402.265
394.809
390.169
388.139
386.769
385.097
381.809
374.72
354.46
326.402
301.628
286.895
281.132
279.397
278.922
278.795
278.76
278.751
278.747
)
;

boundaryField
{
    inlet
    {
        type            zeroGradient;
    }
    outlet
    {
        type            zeroGradient;
    }
    bottom
    {
        type            symmetryPlane;
    }
    top
    {
        type            symmetryPlane;
    }
    obstacle
    {
        type            zeroGradient;
    }
    defaultFaces
    {
        type            empty;
    }
}


// ************************************************************************* //
