/*--------------------------------*- C++ -*----------------------------------*\
| =========                 |                                                 |
| \\      /  F ield         | OpenFOAM: The Open Source CFD Toolbox           |
|  \\    /   O peration     | Version:  5.x                                   |
|   \\  /    A nd           | Web:      www.OpenFOAM.org                      |
|    \\/     M anipulation  |                                                 |
\*---------------------------------------------------------------------------*/
/*   Windows 32 and 64 bit porting by blueCAPE: http://www.bluecape.com.pt   *\
|  Based on Windows porting (2.0.x v4) by Symscape: http://www.symscape.com   |
\*---------------------------------------------------------------------------*/
FoamFile
{
    version     2.0;
    format      ascii;
    class       volVectorField;
    location    "0.0065";
    object      U;
}
// * * * * * * * * * * * * * * * * * * * * * * * * * * * * * * * * * * * * * //

dimensions      [0 1 -1 0 0 0 0];

internalField   nonuniform List<vector> 
100
(
(0.0284865 -0.00023302 0)
(0.138777 0.000551336 1.65471e-017)
(0.511705 0.00994795 -8.59025e-018)
(1.71541 0.0610043 0)
(5.07943 0.264944 0)
(12.9841 0.894737 9.51764e-018)
(27.9626 2.40505 4.67027e-017)
(50.9565 5.33633 -4.17755e-018)
(80.8376 10.0554 -3.17353e-017)
(115.168 16.5769 1.00387e-017)
(151.727 24.6701 -7.16147e-017)
(187.562 33.8052 7.38155e-017)
(222.336 42.9322 0)
(253.256 51.2459 6.1365e-017)
(279.2 58.7194 -9.63172e-017)
(299.245 62.8105 7.37618e-017)
(313.2 63.0574 -1.02409e-016)
(315.684 53.1079 0)
(298.958 29.5549 -1.36219e-016)
(268.294 6.69794 1.26751e-016)
(0.0202357 -0.000924083 -9.33511e-018)
(0.0968967 -0.00555798 9.15217e-018)
(0.353592 -0.0256799 -2.23981e-017)
(1.18238 -0.104149 5.26128e-017)
(3.52468 -0.366839 -3.45289e-017)
(9.22033 -1.11031 -3.68926e-017)
(20.5933 -2.80927 2.90953e-017)
(38.8807 -5.88201 0)
(63.4211 -10.5304 5.20026e-017)
(92.3663 -16.7015 -6.18943e-017)
(124.085 -24.174 -4.91485e-017)
(155.369 -32.2231 1.0012e-016)
(185.473 -41.1958 -4.96437e-017)
(213.602 -49.9145 8.57395e-017)
(239.248 -57.6236 -8.30772e-017)
(262.608 -66.0464 -7.4721e-017)
(281.561 -75.3344 8.11363e-017)
(291.273 -87.3758 -8.0345e-017)
(292.536 -100.299 2.78124e-016)
(291.1 -110.441 -1.92179e-016)
(293.047 -109.778 0)
(297.934 -109.501 7.37939e-016)
(303.035 -109.223 -1.4952e-015)
(305.962 -108.593 7.54805e-016)
(306.934 -107.634 0)
(306.863 -106.473 0)
(306.457 -105.215 7.81399e-016)
(305.699 -103.851 -1.5895e-015)
(304.674 -102.393 8.06738e-016)
(303.698 -100.887 0)
(302.754 -99.3278 0)
(301.837 -97.7125 8.54151e-016)
(300.962 -96.0429 -1.73888e-015)
(300.181 -94.3232 8.82628e-016)
(299.573 -92.5676 0)
(299.216 -90.7852 0)
(299.12 -88.9818 9.27168e-016)
(299.354 -87.1688 -1.88176e-015)
(299.82 -85.3339 9.52045e-016)
(300.575 -83.4944 0)
(155.334 -93.1979 3.52115e-016)
(157.627 -83.5391 -6.11916e-016)
(160.108 -70.4626 2.94389e-016)
(158.156 -58.6816 2.69958e-016)
(149.789 -48.8188 -2.73547e-016)
(132.485 -40.9254 2.37398e-016)
(103.905 -34.6554 -2.59548e-016)
(68.7904 -28.6223 -2.15375e-016)
(39.1757 -21.2987 4.44052e-016)
(19.835 -12.9461 -2.20353e-016)
(8.81918 -6.28918 2.04146e-016)
(3.399 -2.45342 -4.05256e-016)
(1.16443 -0.789128 2.97777e-016)
(0.369977 -0.22404 -1.98286e-019)
(0.114547 -0.0612923 -9.55834e-017)
(0.0358129 -0.0171854 9.39155e-017)
(0.0115258 -0.0050786 -1.38543e-016)
(0.00384167 -0.00159447 8.75366e-022)
(0.00132471 -0.000533279 4.4696e-017)
(0.000351516 -0.000186515 0)
(302.467 -82.0811 -3.93174e-016)
(302.174 -82.7277 7.87755e-016)
(300.935 -85.3687 -7.8186e-016)
(298.217 -88.6793 3.91105e-016)
(294.377 -90.9118 0)
(289.662 -90.3599 0)
(283.229 -85.7213 1.98806e-016)
(272.749 -76.3758 -6.03626e-016)
(252.421 -62.2939 4.36453e-016)
(210.264 -43.9505 0)
(142.579 -24.5555 0)
(72.1581 -10.0364 0)
(27.1776 -3.08412 -9.62075e-017)
(8.38387 -0.812579 2.01101e-016)
(2.33524 -0.200697 -1.00877e-016)
(0.632053 -0.0488347 1.00446e-016)
(0.174654 -0.0121255 -5.08027e-017)
(0.050449 -0.00311954 -1.02349e-016)
(0.0153677 -0.00083449 5.16476e-017)
(0.0037307 -0.000228754 0)
)
;

boundaryField
{
    inlet
    {
        type            zeroGradient;
    }
    outlet
    {
        type            zeroGradient;
    }
    bottom
    {
        type            symmetryPlane;
    }
    top
    {
        type            symmetryPlane;
    }
    obstacle
    {
        type            zeroGradient;
    }
    defaultFaces
    {
        type            empty;
    }
}


// ************************************************************************* //
