/*--------------------------------*- C++ -*----------------------------------*\
| =========                 |                                                 |
| \\      /  F ield         | OpenFOAM: The Open Source CFD Toolbox           |
|  \\    /   O peration     | Version:  5.x                                   |
|   \\  /    A nd           | Web:      www.OpenFOAM.org                      |
|    \\/     M anipulation  |                                                 |
\*---------------------------------------------------------------------------*/
/*   Windows 32 and 64 bit porting by blueCAPE: http://www.bluecape.com.pt   *\
|  Based on Windows porting (2.0.x v4) by Symscape: http://www.symscape.com   |
\*---------------------------------------------------------------------------*/
FoamFile
{
    version     2.0;
    format      ascii;
    class       volScalarField;
    location    "0.004";
    object      mag(U);
}
// * * * * * * * * * * * * * * * * * * * * * * * * * * * * * * * * * * * * * //

dimensions      [0 1 -1 0 0 0 0];

internalField   nonuniform List<scalar> 
10000
(
9.0305e-011
1.10956e-009
9.19135e-009
8.30053e-008
6.09897e-007
4.61029e-006
2.9492e-005
0.00018609
0.00101773
0.00531006
0.024319
0.102987
0.379449
1.22435
3.38589
8.18579
17.1733
31.4912
50.7111
73.0609
96.6628
120.039
142.696
164.296
184.888
203.955
221.315
237.072
251.326
263.382
272.616
279.842
285.73
290.515
294.38
297.974
302.205
306.938
311.688
316.359
321.256
326.681
331.926
336.185
339.531
341.886
342.917
342.373
340.442
337.158
332.561
327.188
320.539
310.3
291.549
251.138
156.051
38.1229
6.3928
0.917109
8.80541e-011
1.07819e-009
8.80511e-009
7.94456e-008
5.76908e-007
4.36168e-006
2.76663e-005
0.000174731
0.000950883
0.00496982
0.0227308
0.096609
0.357361
1.15976
3.22319
7.83719
16.5381
30.5143
49.4288
71.5913
95.1396
118.576
141.338
163.116
183.939
203.227
220.871
237.019
251.695
264.195
273.848
281.433
287.613
292.481
295.997
298.627
301.386
304.396
307.126
309.306
311.074
312.867
314.208
314.386
313.754
312.623
310.96
308.736
305.924
302.555
298.475
294.092
289.29
282.606
270.542
243.459
169.866
56.7642
10.4056
1.62841
8.67469e-011
1.0688e-009
8.70372e-009
7.86713e-008
5.70474e-007
4.3205e-006
2.73933e-005
0.000173273
0.00094318
0.00493617
0.0225916
0.096108
0.355759
1.1556
3.21419
7.82004
16.5088
30.4669
49.3537
71.4624
94.9225
118.237
140.823
162.512
182.993
202.14
219.718
235.547
249.869
262.241
272.033
279.696
285.679
290.07
292.889
294.666
296.463
298.369
299.841
300.773
301.609
303.083
304.906
306.379
307.619
308.618
309.039
308.524
307.239
305.189
302.207
298.599
294.021
287.137
274.83
247.988
177.865
68.3822
13.0476
2.14037
8.4422e-011
1.04242e-009
8.39047e-009
7.58707e-008
5.44631e-007
4.1275e-006
2.59709e-005
0.000164419
0.000890705
0.00466745
0.021326
0.0909626
0.337787
1.10252
3.07898
7.5269
15.9688
29.6267
48.2338
70.162
93.5596
116.928
139.58
161.5
182.049
201.446
219.47
235.601
250.017
262.664
272.949
281.202
287.682
292.189
294.645
295.543
296.067
296.557
296.463
295.564
294.376
293.908
294.13
294.48
295.141
296.159
297.233
297.732
297.381
296.155
294.006
291.266
288.112
283.501
274.658
254.421
197.011
88.1795
17.8083
3.15862
8.28781e-011
1.02706e-009
8.2255e-009
7.46e-008
5.34006e-007
4.05833e-006
2.5507e-005
0.000161887
0.000877101
0.00460638
0.0210672
0.0900089
0.334655
1.09408
3.05985
7.48917
15.9037
29.5285
48.1024
69.9822
93.3037
116.556
139.076
160.845
181.205
200.399
218.224
234.152
248.416
260.881
271.034
279.099
285.37
289.806
292.274
293.207
293.786
294.329
294.243
293.247
291.853
291.129
291.209
291.603
292.432
293.774
295.238
296.216
296.524
296.002
294.491
292.144
288.924
284.104
275.242
255.76
205.124
103.55
22.8913
4.3806
8.05203e-011
1.00354e-009
7.95732e-009
7.22966e-008
5.12986e-007
3.90417e-006
2.43726e-005
0.000154868
0.00083535
0.00439216
0.0200519
0.0858371
0.319975
1.05031
2.9473
7.2422
15.444
28.8049
47.1229
68.8268
92.0794
115.372
137.972
159.843
180.428
199.859
217.859
234.027
248.588
261.481
271.935
280.214
286.72
291.295
293.842
294.728
295.142
295.551
295.363
294.176
292.331
290.88
290.117
289.637
289.647
290.352
291.528
292.573
293.038
292.731
291.571
289.759
287.479
283.987
277.022
261.377
219.1
122.531
30.5932
5.98465
7.85963e-011
9.8559e-010
7.76411e-009
7.08086e-008
5.00432e-007
3.82182e-006
2.38135e-005
0.000151778
0.000818508
0.00431528
0.0197204
0.0845996
0.315844
1.03899
2.92101
7.18959
15.3524
28.6681
46.9479
68.6093
91.7978
114.984
137.467
159.218
179.607
198.843
216.689
232.695
247.104
259.781
270.103
278.227
284.578
289.205
292.014
293.32
294.298
295.392
295.958
295.543
294.353
293.318
292.802
292.431
292.324
292.778
293.559
294.121
294.248
293.797
292.574
290.564
287.914
284.197
277.393
262.823
226.284
137.869
39.6557
7.63649
7.6468e-011
9.63671e-010
7.52466e-009
6.88338e-008
4.82659e-007
3.69448e-006
2.28815e-005
0.000146077
0.000784599
0.00414176
0.018895
0.081184
0.303741
1.00264
2.8268
6.98068
14.9597
28.0435
46.0902
67.5807
90.6931
113.911
136.458
158.298
178.894
198.344
216.355
232.576
247.214
260.248
270.834
279.15
285.746
290.554
293.527
294.937
295.891
296.952
297.544
297.164
295.906
294.621
293.758
292.966
292.371
292.346
292.873
293.473
293.565
293.016
291.834
290.063
287.869
284.809
279.092
266.837
235.845
154.5
50.8009
9.49596
7.41788e-011
9.45176e-010
7.32339e-009
6.72948e-008
4.69571e-007
3.60839e-006
2.22905e-005
0.000142783
0.000766407
0.00405764
0.0185266
0.0797947
0.299035
0.989556
2.79588
6.91801
14.8496
27.8786
45.8821
67.3347
90.3953
113.518
135.964
157.698
178.107
197.379
215.258
231.344
245.862
258.715
269.187
277.381
283.822
288.615
291.741
293.413
294.699
296.16
297.22
297.342
296.543
295.608
295.062
294.564
294.119
294.128
294.506
294.75
294.539
293.836
292.528
290.515
288.059
284.971
279.568
268.294
241.244
168.48
63.0501
11.5812
7.23131e-011
9.24567e-010
7.1044e-009
6.55519e-008
4.5408e-007
3.50005e-006
2.1503e-005
0.000138035
0.00073824
0.00391441
0.0178443
0.0769637
0.288938
0.959075
2.71639
6.74024
14.5124
27.3375
45.1298
66.4185
89.3954
112.54
135.036
156.851
177.446
196.912
214.945
231.218
245.919
259.074
269.803
278.147
284.782
289.714
292.904
294.554
295.667
296.919
297.822
297.817
296.857
295.68
294.9
294.193
293.534
293.35
293.721
294.287
294.277
293.56
292.319
290.514
288.334
285.582
280.845
271.003
247.469
182.488
76.5653
14.1695
7.00503e-011
9.06296e-010
6.90649e-009
6.40514e-008
4.41242e-007
3.41563e-006
2.0918e-005
0.000134755
0.000719922
0.00382883
0.0174644
0.0755172
0.283973
0.945095
2.68285
6.67143
14.3904
27.1534
44.8977
66.1511
89.0885
112.149
134.556
156.282
176.695
195.999
213.929
230.093
244.689
257.699
268.353
276.669
283.233
288.162
291.479
293.316
294.619
296.083
297.235
297.486
296.723
295.641
294.962
294.423
293.906
293.838
294.216
294.557
294.374
293.679
292.465
290.602
288.377
285.724
281.293
272.215
251.232
194.169
90.3665
17.3485
6.82404e-011
8.87058e-010
6.70433e-009
6.24876e-008
4.27467e-007
3.32138e-006
2.02372e-005
0.000130713
0.000696023
0.00370835
0.0168906
0.0731387
0.275435
0.919245
2.61514
6.51904
14.0992
26.6824
44.2361
65.3345
88.1814
111.254
133.703
155.495
176.08
195.56
213.622
229.941
244.693
257.955
268.856
277.294
284.012
289.096
292.497
294.357
295.56
296.87
297.908
298.059
297.127
295.728
294.684
293.801
292.981
292.705
293.103
293.869
294.064
293.467
292.358
290.663
288.599
286.14
282.16
274.035
255.39
205.145
105.043
21.6322
6.66529e-011
8.6984e-010
6.5151e-009
6.10698e-008
4.15277e-007
3.24146e-006
1.96789e-005
0.000127573
0.000678311
0.00362493
0.0165158
0.0716989
0.270435
0.905004
2.58051
6.44714
13.9703
26.4865
43.988
65.0519
87.8705
110.871
133.241
154.958
175.369
194.704
212.686
228.919
243.575
256.715
267.563
276.028
282.745
287.851
291.395
293.483
294.935
296.529
297.901
298.404
297.773
296.519
295.507
294.603
293.679
293.256
293.454
293.88
293.866
293.322
292.301
290.648
288.653
286.311
282.55
275.046
258.347
214.387
119.334
27.1448
6.45155e-011
8.51661e-010
6.32836e-009
5.96552e-008
4.02883e-007
3.15822e-006
1.90804e-005
0.000124068
0.000657666
0.0035218
0.0160252
0.0696729
0.263118
0.882821
2.52222
6.31544
13.7171
26.0743
43.4042
64.3229
87.0459
110.048
132.455
154.222
174.793
194.289
212.377
228.738
243.531
256.884
267.963
276.541
283.375
288.65
292.327
294.507
295.972
297.55
298.979
299.606
299.086
297.81
296.645
295.498
294.255
293.502
293.505
294.07
294.21
293.595
292.511
290.875
288.93
286.696
283.244
276.461
261.561
222.88
133.235
33.9298
6.31072e-011
8.35663e-010
6.1505e-009
5.83384e-008
3.91517e-007
3.08405e-006
1.85588e-005
0.000121132
0.000640957
0.00344263
0.0156656
0.0682807
0.258231
0.868761
2.48761
6.24275
13.5856
25.8725
43.1467
64.0308
86.735
109.677
132.012
153.717
174.129
193.493
211.516
227.809
242.521
255.784
266.827
275.45
282.334
287.664
291.507
293.958
295.718
297.624
299.432
300.481
300.374
299.402
298.42
297.362
296.056
295.094
294.753
294.817
294.586
293.869
292.751
291.102
289.18
286.992
283.715
277.467
264.057
229.979
146.336
41.7181
6.04363e-011
8.18955e-010
5.97829e-009
5.70546e-008
3.80297e-007
3.00983e-006
1.80265e-005
0.000118052
0.000622865
0.00335305
0.0152399
0.0665321
0.25188
0.849504
2.43692
6.12794
13.3638
25.5095
42.6295
63.3787
85.9842
108.918
131.286
153.024
173.585
193.099
211.201
227.597
242.439
255.882
267.13
275.851
282.811
288.303
292.306
294.894
296.742
298.715
300.663
301.917
302.024
301.161
300.145
298.95
297.415
296.168
295.607
295.668
295.453
294.559
293.251
291.516
289.568
287.423
284.356
278.641
266.528
236.292
158.915
50.6329
5.89418e-011
8.03972e-010
5.81281e-009
5.58438e-008
3.69811e-007
2.94178e-006
1.75452e-005
0.000115344
0.000607342
0.00327917
0.0149013
0.0652119
0.247199
0.835918
2.4031
6.05617
13.2328
25.3066
42.3681
63.0821
85.6763
108.559
130.865
152.553
172.969
192.364
210.413
226.756
241.533
254.909
266.125
274.89
281.915
287.466
291.634
294.501
296.656
298.955
301.259
302.899
303.394
302.841
302.012
300.927
299.374
297.94
297.044
296.649
296.101
295.086
293.701
291.903
289.918
287.773
284.833
279.51
268.468
241.503
170.708
60.3839
5.69432e-011
7.88407e-010
5.65425e-009
5.46776e-008
3.59622e-007
2.87523e-006
1.70681e-005
0.000112612
0.000591315
0.00320043
0.0145275
0.0636846
0.241624
0.819021
2.35857
5.9552
13.037
24.9849
41.9078
62.4972
84.9917
107.86
130.19
151.898
172.452
191.984
210.093
226.52
241.414
254.938
266.335
275.19
282.255
287.935
292.243
295.235
297.477
299.842
302.265
304.07
304.749
304.316
303.493
302.343
300.662
299.046
297.998
297.576
297.01
295.836
294.271
292.38
290.345
288.21
285.413
280.474
270.376
246.113
181.896
71.1036
5.52037e-011
7.74342e-010
5.50154e-009
5.35713e-008
3.50005e-007
2.8132e-006
1.66273e-005
0.000110135
0.000577027
0.00313222
0.0142123
0.0624489
0.237203
0.806088
2.32606
5.88552
12.9087
24.7845
41.6471
62.2003
84.6889
107.514
129.793
151.461
171.883
191.309
209.378
225.764
240.602
254.077
265.442
274.338
281.473
287.196
291.634
294.852
297.324
299.908
302.56
304.613
305.552
305.33
304.638
303.593
301.954
300.245
298.983
298.285
297.554
296.332
294.714
292.781
290.712
288.575
285.881
281.249
271.92
249.882
191.988
81.9625
5.38729e-011
7.60064e-010
5.35572e-009
5.25119e-008
3.40742e-007
2.75331e-006
1.61976e-005
0.000107695
0.000562717
0.00306237
0.0138808
0.0611013
0.23226
0.791119
2.28657
5.79598
12.7345
24.4975
41.2352
61.6739
84.0639
106.869
129.163
150.84
171.389
190.939
209.052
225.505
240.452
254.049
265.577
274.55
281.687
287.492
292.011
295.27
297.731
300.272
302.936
305.065
306.129
306.024
305.38
304.343
302.677
300.901
299.588
298.898
298.187
296.898
295.185
293.209
291.117
288.996
286.418
282.089
273.45
253.355
201.382
93.3774
5.24238e-011
7.46881e-010
5.21512e-009
5.15043e-008
3.31952e-007
2.69697e-006
1.57954e-005
0.000105439
0.000549639
0.00299981
0.0135897
0.0599549
0.228124
0.77894
2.25568
5.7292
12.6105
24.3023
40.9789
61.3806
83.768
106.537
128.793
150.437
170.866
190.324
208.404
224.828
239.729
253.292
264.786
273.796
280.995
286.797
291.355
294.703
297.22
299.791
302.515
304.757
306.005
306.116
305.675
304.856
303.38
301.647
300.237
299.408
298.633
297.328
295.577
293.577
291.464
289.345
286.844
282.749
274.703
256.366
209.809
104.067
5.10305e-011
7.34352e-010
5.08133e-009
5.05423e-008
3.23525e-007
2.64295e-006
1.54071e-005
0.000103249
0.000536787
0.0029374
0.0132934
0.0587557
0.223706
0.765566
2.22038
5.64915
12.4545
24.0444
40.6082
60.9049
83.1966
105.94
128.202
149.846
170.392
189.961
208.074
224.552
239.552
253.222
264.873
273.959
281.12
286.926
291.437
294.638
296.936
299.261
301.821
304.005
305.313
305.576
305.311
304.707
303.459
301.894
300.599
299.838
299.112
297.794
295.987
293.957
291.833
289.725
287.308
283.451
275.985
259.289
217.787
114.61
4.95922e-011
7.22303e-010
4.95239e-009
4.96263e-008
3.15508e-007
2.59187e-006
1.50409e-005
0.000101201
0.000524854
0.00288026
0.013026
0.0576984
0.219863
0.754182
2.19129
5.58576
12.336
23.8564
40.3592
60.6181
82.9092
105.623
127.86
149.474
169.922
189.407
207.491
223.953
238.923
252.578
264.213
273.361
280.584
286.31
290.715
293.81
295.945
298.084
300.493
302.573
303.872
304.25
304.185
303.893
303.031
301.757
300.627
299.962
299.333
298.085
296.286
294.256
292.13
290.022
287.658
283.994
277.034
261.759
224.73
124.3
4.8117e-011
7.11052e-010
4.83009e-009
4.87531e-008
3.0784e-007
2.54307e-006
1.46893e-005
9.92292e-005
0.000513264
0.00282419
0.0127595
0.0566238
0.215888
0.742149
2.1595
5.51368
12.1952
23.6233
40.0237
60.1864
82.3857
105.069
127.308
148.89
169.516
189.008
207.126
223.737
238.797
252.468
264.227
273.531
280.81
286.571
290.875
293.709
295.497
297.261
299.355
301.179
302.3
302.621
302.604
302.507
301.963
301.028
300.213
299.794
299.368
298.255
296.506
294.509
292.408
290.322
288.034
284.584
278.123
264.157
231.252
133.841
4.69147e-011
6.99982e-010
4.71205e-009
4.79214e-008
3.00535e-007
2.4968e-006
1.43562e-005
9.73714e-005
0.000502393
0.0027721
0.0125145
0.0556523
0.212333
0.731565
2.13228
5.45396
12.0828
23.4438
39.7841
59.9088
82.1083
104.768
126.998
148.525
169.156
188.436
206.526
223.306
238.369
251.842
263.405
272.798
280.363
286.292
290.654
293.452
295.072
296.585
298.412
299.976
300.843
300.976
300.873
300.861
300.576
299.944
299.414
299.253
299.078
298.173
296.543
294.623
292.573
290.508
288.28
285.011
278.968
266.091
236.702
142.343
4.55555e-011
6.89961e-010
4.6004e-009
4.71289e-008
2.93556e-007
2.45267e-006
1.40373e-005
9.55907e-005
0.000491906
0.00272153
0.0122739
0.054684
0.208738
0.720673
2.10347
5.38864
11.955
23.2316
39.4787
59.515
81.6273
104.254
126.472
147.982
168.726
188.065
206.153
223.018
238.182
251.677
263.301
272.761
280.362
286.44
290.908
293.654
295.089
296.306
297.809
299.05
299.606
299.463
299.158
299.096
298.938
298.538
298.293
298.422
298.542
297.893
296.429
294.628
292.667
290.659
288.528
285.469
279.847
267.986
241.813
150.815
4.41483e-011
6.79537e-010
4.49256e-009
4.6374e-008
2.86903e-007
2.41074e-006
1.37343e-005
9.39056e-005
0.000482008
0.0026741
0.0120498
0.0537934
0.20546
0.71087
2.07812
5.3327
11.8492
23.0616
39.2501
59.2485
81.3612
103.969
126.183
147.676
168.339
187.607
205.67
222.54
237.696
251.161
262.728
272.232
279.964
286.106
290.656
293.492
294.888
295.929
297.176
298.122
298.354
297.895
297.332
297.156
297.069
296.854
296.86
297.274
297.707
297.362
296.116
294.466
292.616
290.669
288.618
285.733
280.454
269.399
245.811
158.287
4.29321e-011
6.70467e-010
4.39049e-009
4.56546e-008
2.8055e-007
2.37078e-006
1.34446e-005
9.22944e-005
0.000472496
0.00262833
0.0118316
0.0529168
0.202193
0.700962
2.05188
5.27317
11.7324
22.8674
38.9704
58.8875
80.9179
103.49
125.682
147.16
167.912
187.252
205.323
222.229
237.455
250.98
262.657
272.234
279.965
286.207
290.847
293.654
294.906
295.679
296.607
297.214
297.089
296.282
295.435
295.103
295.022
294.951
295.194
295.9
296.663
296.652
295.658
294.191
292.49
290.639
288.702
286.018
281.099
270.807
249.579
165.839
4.17342e-011
6.60991e-010
4.29245e-009
4.49694e-008
2.74491e-007
2.33279e-006
1.31689e-005
9.07655e-005
0.000463484
0.00258515
0.0116268
0.0521015
0.199177
0.691908
2.02834
5.22102
11.6333
22.7073
38.7538
58.6338
80.6643
103.224
125.418
146.889
167.558
186.839
204.903
221.808
237.016
250.52
262.163
271.793
279.643
285.919
290.589
293.444
294.649
295.256
295.945
296.266
295.811
294.67
293.536
293.03
292.931
292.972
293.415
294.383
295.459
295.784
295.057
293.784
292.237
290.479
288.634
286.103
281.459
271.725
252.262
172.278
4.04892e-011
6.52896e-010
4.19936e-009
4.43162e-008
2.68706e-007
2.29657e-006
1.29054e-005
8.9305e-005
0.000454837
0.0025436
0.0114283
0.0513047
0.196198
0.682854
2.00432
5.16646
11.5261
22.5285
38.4962
58.301
80.2541
102.776
124.941
146.395
167.139
186.49
204.567
221.494
236.753
250.311
262.068
271.778
279.629
285.984
290.721
293.544
294.627
295.012
295.435
295.468
294.696
293.232
291.815
291.121
290.962
291.068
291.673
292.872
294.233
294.873
294.406
293.331
291.952
290.312
288.583
286.23
281.887
272.713
254.962
178.452
3.94107e-011
6.44102e-010
4.10993e-009
4.36942e-008
2.63187e-007
2.26211e-006
1.26545e-005
8.7917e-005
0.000446629
0.00250429
0.0112413
0.0505589
0.193427
0.67451
1.98255
5.11804
11.4336
22.3786
38.2924
58.0612
80.0142
102.527
124.702
146.154
166.82
186.118
204.2
221.125
236.362
249.909
261.651
271.421
279.384
285.76
290.511
293.383
294.447
294.725
294.986
294.818
293.802
292.062
290.375
289.483
289.243
289.37
290.079
291.45
293.045
293.958
293.723
292.823
291.588
290.044
288.397
286.166
282.037
273.251
256.713
182.926
3.84424e-011
6.36907e-010
4.02501e-009
4.3101e-008
2.57915e-007
2.22926e-006
1.24146e-005
8.65907e-005
0.000438754
0.00246649
0.0110603
0.0498321
0.1907
0.666204
1.96047
5.06779
11.3346
22.2132
38.0538
57.7526
79.6331
102.107
124.246
145.68
166.414
185.775
203.864
220.807
236.086
249.679
261.527
271.373
279.334
285.783
290.608
293.478
294.489
294.648
294.766
294.44
293.23
291.252
289.306
288.203
287.838
287.928
288.687
290.179
291.961
293.106
293.071
292.332
291.237
289.8
288.255
286.176
282.308
273.985
258.839
186.909
3.73378e-011
6.28777e-010
3.94346e-009
4.25359e-008
2.52887e-007
2.19798e-006
1.2186e-005
8.53298e-005
0.000431275
0.00243068
0.0108895
0.0491503
0.188159
0.658529
1.94039
5.023
11.2488
22.0736
37.8633
57.5277
79.4076
101.875
124.031
145.468
166.126
185.442
203.544
220.484
235.741
249.326
261.167
271.066
279.125
285.585
290.418
293.362
294.426
294.59
294.685
294.31
292.995
290.837
288.642
287.298
286.761
286.754
287.499
289.05
290.966
292.295
292.427
291.816
290.83
289.472
287.987
286.003
282.316
274.318
260.118
189.78
3.65593e-011
6.21986e-010
3.86607e-009
4.1997e-008
2.4808e-007
2.16813e-006
1.19673e-005
8.41233e-005
0.000424087
0.00239621
0.010724
0.0484851
0.185655
0.65088
1.91999
4.97649
11.157
21.9197
37.6409
57.24
79.0519
101.48
123.596
145.012
165.731
185.105
203.213
220.164
235.453
249.082
261.024
270.994
279.042
285.566
290.488
293.482
294.589
294.768
294.875
294.511
293.163
290.885
288.46
286.845
286.06
285.867
286.518
288.066
290.067
291.545
291.819
291.326
290.45
289.183
287.782
285.936
282.499
274.953
262.014
193.092
3.58432e-011
6.14721e-010
3.79151e-009
4.14832e-008
2.43497e-007
2.13972e-006
1.1759e-005
8.29771e-005
0.000417272
0.0023636
0.0105681
0.0478623
0.183327
0.643836
1.90152
4.93521
11.0777
21.7903
37.4639
57.0304
78.8416
101.267
123.402
144.825
165.474
184.809
202.933
219.881
235.151
248.779
260.717
270.73
278.858
285.386
290.33
293.441
294.677
294.972
295.194
294.944
293.667
291.359
288.764
286.88
285.803
285.345
285.807
287.263
289.277
290.848
291.227
290.823
290.027
288.821
287.463
285.693
282.411
275.142
262.919
195.846
3.48934e-011
6.08298e-010
3.72085e-009
4.09931e-008
2.39111e-007
2.11257e-006
1.15592e-005
8.18773e-005
0.000410695
0.00233207
0.0104162
0.047251
0.181019
0.63676
1.88259
4.89194
10.9921
21.6463
37.2556
56.7608
78.5081
100.893
122.987
144.387
165.091
184.478
202.603
219.558
234.856
248.522
260.553
270.624
278.73
285.315
290.362
293.563
294.91
295.313
295.66
295.562
294.422
292.168
289.484
287.38
286.006
285.227
285.42
286.697
288.65
290.258
290.708
290.377
289.659
288.527
287.237
285.589
282.544
275.691
264.556
199.029
3.4435e-011
6.0184e-010
3.65279e-009
4.05258e-008
2.34933e-007
2.08675e-006
1.13695e-005
8.08354e-005
0.000404488
0.00230238
0.0102742
0.046683
0.178892
0.630315
1.86567
4.85406
10.9192
21.5272
37.0921
56.5668
78.3133
100.698
122.814
144.222
164.864
184.217
202.358
219.313
234.596
248.264
260.289
270.391
278.558
285.139
290.201
293.516
295.006
295.556
296.071
296.168
295.222
293.1
290.423
288.188
286.579
285.497
285.38
286.409
288.22
289.792
290.26
289.959
289.281
288.186
286.918
285.321
282.396
275.743
265.109
201.344
3.3271e-011
5.95855e-010
3.58862e-009
4.00794e-008
2.30924e-007
2.062e-006
1.11865e-005
7.983e-005
0.000398452
0.00227344
0.0101343
0.0461188
0.176755
0.623738
1.84802
4.81358
10.8388
21.3917
36.8959
56.3126
77.9992
100.344
122.418
143.801
164.492
183.889
202.028
218.988
234.297
247.996
260.097
270.247
278.389
285.014
290.158
293.539
295.124
295.774
296.416
296.685
295.932
293.976
291.374
289.1
287.344
286.019
285.614
286.377
288.005
289.493
289.941
289.645
288.996
287.943
286.723
285.228
282.522
276.26
266.601
203.997
3.31089e-011
5.90081e-010
3.52628e-009
3.96543e-008
2.27117e-007
2.03855e-006
1.10138e-005
7.88837e-005
0.000392805
0.00224646
0.0100051
0.0456022
0.174818
0.617865
1.83259
4.77902
10.7722
21.2826
36.7459
56.1345
77.8201
100.166
122.263
143.657
164.293
183.661
201.817
218.78
234.078
247.776
259.87
270.043
278.239
284.849
289.979
293.423
295.096
295.841
296.597
297.016
296.438
294.651
292.163
289.921
288.113
286.641
286.011
286.532
287.963
289.332
289.717
289.385
288.725
287.673
286.449
284.976
282.355
276.244
266.938
205.857
3.25375e-011
5.84446e-010
3.46756e-009
3.92468e-008
2.23444e-007
2.01591e-006
1.08457e-005
7.7961e-005
0.000387241
0.00221977
0.00987558
0.0450785
0.172828
0.611712
1.81601
4.74089
10.6964
21.1545
36.56
55.8934
77.5229
99.8293
121.884
143.251
163.932
183.337
201.486
218.455
233.779
247.5
259.653
269.873
278.056
284.708
289.903
293.385
295.105
295.887
296.695
297.207
296.755
295.106
292.731
290.553
288.753
287.209
286.433
286.77
288.035
289.293
289.612
289.234
288.559
287.516
286.316
284.926
282.509
276.785
268.38
208.17
3.1908e-011
5.79211e-010
3.41088e-009
3.88606e-008
2.1998e-007
1.99464e-006
1.06888e-005
7.71039e-005
0.000382123
0.00219535
0.00975869
0.044611
0.171074
0.606395
1.80205
4.70958
10.636
21.0553
36.4235
55.7313
77.3597
99.6685
121.748
143.127
163.76
183.141
201.306
218.281
233.599
247.32
259.466
269.706
277.938
284.579
289.755
293.274
295.033
295.84
296.679
297.252
296.891
295.348
293.07
290.964
289.212
287.661
286.806
287.018
288.151
289.309
289.556
289.115
288.396
287.327
286.102
284.708
282.337
276.714
268.565
209.737
3.10729e-011
5.73967e-010
3.35719e-009
3.84873e-008
2.16603e-007
1.97384e-006
1.05335e-005
7.62516e-005
0.000376957
0.00217054
0.00963781
0.0441208
0.169207
0.600593
1.78636
4.67342
10.5639
20.9332
36.2462
55.5014
77.0772
99.3475
121.385
142.737
163.407
182.819
200.977
217.955
233.294
247.035
259.237
269.524
277.748
284.429
289.665
293.209
294.987
295.786
296.617
297.213
296.905
295.435
293.234
291.195
289.499
287.969
287.081
287.22
288.27
289.365
289.564
289.076
288.328
287.251
286.037
284.713
282.537
277.311
270.025
211.855
3.04527e-011
5.69164e-010
3.30585e-009
3.81374e-008
2.13465e-007
1.95465e-006
1.03919e-005
7.54804e-005
0.000372354
0.00214861
0.00953291
0.0437015
0.167632
0.595826
1.77384
4.64533
10.5096
20.8439
36.1231
55.3551
76.9298
99.2038
121.265
142.631
163.259
182.655
200.831
217.813
233.146
246.892
259.095
269.399
277.66
284.325
289.532
293.092
294.881
295.666
296.481
297.085
296.809
295.389
293.247
291.268
289.64
288.161
287.274
287.375
288.369
289.416
289.573
289.036
288.245
287.134
285.884
284.536
282.37
277.202
270.115
213.273
2.97977e-011
5.64355e-010
3.25632e-009
3.77932e-008
2.10333e-007
1.93534e-006
1.0247e-005
7.46846e-005
0.000367504
0.0021253
0.00941884
0.0432375
0.165862
0.590297
1.75886
4.61071
10.4406
20.7269
35.9531
55.1347
76.6601
98.8962
120.916
142.256
162.912
182.334
200.505
217.484
232.832
246.602
258.859
269.21
277.461
284.15
289.403
292.981
294.776
295.534
296.314
296.906
296.639
295.247
293.143
291.209
289.64
288.214
287.351
287.446
288.421
289.458
289.608
289.051
288.242
287.127
285.889
284.612
282.645
277.908
271.651
215.382
2.90492e-011
5.6007e-010
3.21012e-009
3.74788e-008
2.0752e-007
1.91823e-006
1.01208e-005
7.40001e-005
0.000363424
0.00210589
0.00932612
0.042867
0.164469
0.586089
1.7478
4.58587
10.3924
20.6475
35.8433
55.0042
76.5283
98.7694
120.813
142.167
162.788
182.2
200.39
217.371
232.714
246.494
258.758
269.117
277.386
284.045
289.255
292.829
294.617
295.342
296.088
296.663
296.395
295.011
292.923
291.018
289.506
288.147
287.328
287.442
288.421
289.461
289.613
289.039
288.208
287.071
285.803
284.491
282.505
277.787
271.705
216.855
2.84242e-011
5.5568e-010
3.16419e-009
3.71567e-008
2.04569e-007
1.90001e-006
9.98305e-006
7.32435e-005
0.000358787
0.0020836
0.00921667
0.0424209
0.162766
0.580748
1.73331
4.55237
10.3257
20.5343
35.6791
54.7916
76.2696
98.4735
120.478
141.805
162.449
181.878
200.06
217.039
232.398
246.198
258.506
268.905
277.158
283.824
289.061
292.638
294.423
295.118
295.825
296.378
296.099
294.709
292.618
290.72
289.243
287.935
287.163
287.317
288.332
289.415
289.612
289.059
288.24
287.122
285.883
284.658
282.891
278.652
273.366
219.378
2.8152e-011
5.52006e-010
3.12312e-009
3.68803e-008
2.02111e-007
1.88515e-006
9.87391e-006
7.26528e-005
0.000355275
0.00206689
0.00913696
0.0421021
0.161564
0.577125
1.72376
4.53085
10.2837
20.4649
35.5827
54.6767
76.1531
98.363
120.389
141.731
162.349
181.772
199.969
216.957
232.317
246.124
258.434
268.833
277.092
283.718
288.894
292.443
294.202
294.858
295.528
296.056
295.757
294.342
292.228
290.322
288.876
287.626
286.914
287.123
288.187
289.323
289.571
289.048
288.243
287.13
285.881
284.628
282.822
278.571
273.465
221.911
2.78931e-011
5.48005e-010
3.07889e-009
3.65696e-008
1.9924e-007
1.86739e-006
9.73874e-006
7.1912e-005
0.000350715
0.00204501
0.00902938
0.0416638
0.159894
0.571873
1.70954
4.49805
10.2186
20.3545
35.4228
54.4702
75.9032
98.0758
120.065
141.379
162.013
181.446
199.636
216.629
232.012
245.834
258.175
268.611
276.863
283.49
288.679
292.224
293.977
294.604
295.234
295.727
295.39
293.927
291.76
289.821
288.386
287.18
286.524
286.799
287.937
289.164
289.509
289.057
288.306
287.244
286.051
284.911
283.355
279.633
275.273
227.29
2.77066e-011
5.44746e-010
3.04452e-009
3.63404e-008
1.97225e-007
1.85526e-006
9.65026e-006
7.14323e-005
0.000347871
0.00203141
0.00896442
0.0414023
0.158901
0.568882
1.70159
4.47998
10.1829
20.2948
35.3383
54.3673
75.7953
97.9737
119.982
141.314
161.934
181.372
199.583
216.597
231.988
245.816
258.156
268.587
276.838
283.431
288.568
292.085
293.808
294.388
294.965
295.405
295.002
293.451
291.184
289.174
287.742
286.61
286.051
286.422
287.654
288.978
289.421
289.047
288.351
287.329
286.153
285
283.395
279.645
275.489
235.383
2.6947e-011
5.4062e-010
2.99957e-009
3.60221e-008
1.94258e-007
1.83702e-006
9.51063e-006
7.06732e-005
0.000343193
0.00200914
0.00885514
0.0409593
0.157222
0.563596
1.68731
4.44686
10.1163
20.1792
35.1658
54.141
75.5224
97.6632
119.639
140.949
161.583
181.031
199.242
216.264
231.676
245.516
257.879
268.349
276.612
283.223
288.401
291.948
293.679
294.225
294.742
295.117
294.637
292.974
290.543
288.345
286.791
285.684
285.279
285.824
287.219
288.706
289.312
289.068
288.478
287.552
286.474
285.478
284.188
281.041
277.583
248.72
2.61491e-011
5.33791e-010
2.93238e-009
3.5569e-008
1.90472e-007
1.81377e-006
9.34597e-006
6.97543e-005
0.000337817
0.00198261
0.00872834
0.0404351
0.155199
0.557501
1.67094
4.40959
10.0446
20.0656
35.0207
53.9764
75.3619
97.5068
119.531
140.837
161.453
180.898
199.142
216.201
231.636
245.487
257.86
268.376
276.702
283.327
288.483
292.011
293.695
294.159
294.594
294.908
294.378
292.65
290.077
287.583
285.554
283.831
282.809
282.945
284.144
285.586
286.228
286.018
285.436
284.48
283.274
281.995
280.282
277.113
274.133
262.729
2.39139e-011
5.22456e-010
2.86478e-009
3.49943e-008
1.88043e-007
1.79539e-006
9.30329e-006
6.94972e-005
0.000338426
0.00198754
0.00878566
0.0407468
0.156664
0.562744
1.68782
4.45343
10.1399
20.2354
35.2791
54.3169
75.762
97.918
119.921
141.226
161.848
181.259
199.426
216.441
231.847
245.641
257.94
268.35
276.557
283.057
288.047
291.419
292.99
293.389
293.804
294.133
293.667
292.083
289.756
287.561
285.8
284.272
283.338
283.423
284.456
285.685
286.186
285.927
285.349
284.49
283.489
282.525
281.129
277.944
272.024
253.856
2.32335e-011
5.10935e-010
2.77917e-009
3.43683e-008
1.83579e-007
1.76722e-006
9.12157e-006
6.84938e-005
0.000332735
0.00195997
0.00865273
0.0401979
0.15449
0.555911
1.66852
4.40729
10.0443
20.0705
35.0367
54.0007
75.3807
97.5093
119.511
140.798
161.464
180.95
199.17
216.226
231.667
245.474
257.819
268.331
276.572
283.123
288.206
291.621
293.185
293.52
293.867
294.147
293.644
292.025
289.65
287.369
285.514
283.914
282.941
283.045
284.127
285.399
285.965
285.779
285.265
284.471
283.493
282.534
281.243
278.714
273.491
257.188
2.09602e-011
4.99199e-010
2.70418e-009
3.37332e-008
1.80307e-007
1.74224e-006
9.02198e-006
6.78539e-005
0.000330946
0.00195142
0.00864556
0.0402147
0.154876
0.557833
1.67688
4.43215
10.1057
20.19
35.2388
54.2943
75.7723
97.9342
119.976
141.277
161.853
181.244
199.398
216.412
231.819
245.588
257.857
268.26
276.439
282.847
287.719
291.025
292.559
292.928
293.364
293.791
293.517
292.241
290.312
288.497
287.044
285.757
284.97
285.114
286.109
287.234
287.694
287.421
286.796
285.884
284.795
283.722
282.214
279.002
271.731
250.936
2.15376e-011
4.88012e-010
2.62964e-009
3.31106e-008
1.76593e-007
1.71651e-006
8.8816e-006
6.70535e-005
0.000326932
0.00193232
0.00855944
0.0398695
0.15352
0.553581
1.6646
4.40211
10.0402
20.072
35.0526
54.0309
75.4128
97.5219
119.494
140.761
161.47
180.995
199.199
216.243
231.68
245.456
257.783
268.285
276.444
282.923
287.971
291.356
292.914
293.269
293.703
294.166
293.953
292.733
290.838
289.022
287.564
286.303
285.567
285.801
286.923
288.164
288.707