/*--------------------------------*- C++ -*----------------------------------*\
| =========                 |                                                 |
| \\      /  F ield         | OpenFOAM: The Open Source CFD Toolbox           |
|  \\    /   O peration     | Version:  5.x                                   |
|   \\  /    A nd           | Web:      www.OpenFOAM.org                      |
|    \\/     M anipulation  |                                                 |
\*---------------------------------------------------------------------------*/
/*   Windows 32 and 64 bit porting by blueCAPE: http://www.bluecape.com.pt   *\
|  Based on Windows porting (2.0.x v4) by Symscape: http://www.symscape.com   |
\*---------------------------------------------------------------------------*/
FoamFile
{
    version     2.0;
    format      ascii;
    class       volScalarField;
    location    "0.004";
    object      p;
}
// * * * * * * * * * * * * * * * * * * * * * * * * * * * * * * * * * * * * * //

dimensions      [1 -1 -2 0 0 0 0];

internalField   nonuniform List<scalar> 
10000
(
100000
100000
100000
100000
100000
100000
100000
99999.9
99999.6
99998.1
99991.2
99963.2
99860.1
99546.2
98729.2
96955.4
93667.3
88648.8
82295.5
75385.7
68726.4
62586.6
57114.1
52272.6
48014.2
44329.7
41161.7
38455.6
36239.2
34414.2
32950.9
31964.4
31232.3
30780.7
30535.9
30439
30442.1
30453
30459.2
30487.3
30550
30665.8
30662.1
30655.5
30640.6
30597.4
30481
30327.8
30218.1
30010.9
29732.8
29441
29046.7
28399.8
27073
24231.9
16821.5
11228.2
10205.1
10031.4
100000
100000
100000
100000
100000
100000
100000
99999.9
99999.7
99998.3
99991.7
99965.4
99867.9
99569.4
98787.2
97078.9
93886.4
88972.9
82703
75835
69180.1
63027.8
57531.4
52662.9
48377.7
44660.9
41456.8
38718.1
36464
34610.7
33116.1
32076.7
31325.6
30840.6
30570.5
30445.5
30446.9
30453.3
30459.4
30484.3
30539
30646.9
30654.2
30650.2
30636.7
30604.1
30532.3
30371.4
30261.7
30084.3
29823.8
29573.3
29274.4
28758.3
27758.6
25697.6
19742.7
11792.8
10395
10069.8
100000
100000
100000
100000
100000
100000
100000
99999.9
99999.7
99998.3
99991.8
99965.7
99868.7
99571.3
98791.8
97087.2
93901
88991.8
82722.2
75851.9
69195.3
63038.6
57539.7
52672.1
48381
44664
41466.9
38725.6
36474.8
34613.9
33119.1
32084.1
31322.6
30837.5
30570
30445.3
30446
30449.3
30457
30480.7
30533.9
30640.5
30662.5
30658.8
30644.2
30606.6
30528.7
30369.6
30239.1
30054.5
29790.2
29518.6
29173.6
28580.5
27572.8
25593.5
20640.1
12114.5
10530
10093.3
100000
100000
100000
100000
100000
100000
100000
99999.9
99999.7
99998.4
99992.2
99967.4
99875
99590.5
98840.1
97192.1
94088
89273.2
83083.1
76256
69607.7
63444.4
57923.5
53033.4
48719.4
44974.4
41740.7
38972
36683.2
34807.7
33280.5
32189.6
31411.8
30892.8
30605.6
30454.5
30453.9
30455.9
30455.6
30475.7
30524.1
30623.2
30661
30657.5
30644.9
30614.5
30548.5
30436.6
30293.4
30131
29918.1
29680.4
29437.1
29020.9
28238.3
26677.4
22627
12832.8
10753
10119.7
100000
100000
100000
100000
100000
100000
100000
99999.9
99999.7
99998.4
99992.3
99967.8
99876.3
99593.9
98848.1
97206.8
94114
89307.1
83117.7
76285.7
69633.9
63463.5
57940.5
53048.5
48727.8
44979.5
41753.8
38980
36696.6
34801.8
33281.2
32173.6
31404.4
30881.2
30594.2
30448.5
30446.7
30448.2
30446.9
30467.2
30514.4
30611.8
30663.7
30660.1
30646.4
30611.3
30536.2
30414.5
30268.3
30097.2
29866.6
29593.6
29269
28843.2
28130.6
26691.7
23118
13928.9
10965.7
10138.9
100000
100000
100000
100000
100000
100000
100000
99999.9
99999.7
99998.5
99992.6
99969.3
99881.5
99609.7
98888.5
97295.7
94274.2
89551.7
83436.8
76651
70010.2
63836.8
58294.2
53383
49043.2
45270.7
42010
39214
36893.1
34985.7
33427.3
32291.4
31483.8
30932.5
30619.2
30459
30443.9
30445.8
30444.3
30463
30508.7
30603.9
30663.4
30661.2
30651.4
30625.6
30571.2
30460.5
30329.5
30186.1
29998.6
29774.3
29523.9
29197.9
28583.4
27304.4
23993.3
15387.3
11213.6
10173.2
100000
100000
100000
100000
100000
100000
100000
99999.9
99999.7
99998.5
99992.8
99969.7
99883.1
99614.1
98898.9
97315.1
94308.7
89597.2
83484.3
76691
70044.8
63862.6
58317.9
53403.4
49056.1
45280.4
42027.2
39225.8
36911.8
34982.9
33431.1
32274.9
31486.6
30929.5
30612.2
30454.2
30431.3
30432.8
30433.1
30450.2
30492.1
30577.6
30648.7
30645.6
30634.1
30606.9
30551.2
30439.6
30307.4
30159.6
29950.6
29697.1
29392.7
29089.2
28510.6
27319.7
24407.6
16854.5
11457.3
10229.4
100000
100000
100000
100000
100000
100000
100000
100000
99999.7
99998.5
99993
99970.9
99887.4
99627.3
98932.9
97390.5
94446.6
89810.2
83766.1
77020.1
70388.5
64206.3
58643.3
53712.2
49349.3
45551.8
42266
39443
37090.6
35152.9
33567.3
32380.5
31560.5
30979.8
30637.9
30466.9
30427.9
30429.2
30429.8
30446.5
30487.2
30570.3
30653
30651.8
30645.1
30625.4
30581.3
30492.7
30356.9
30237.7
30065.5
29854.8
29610.7
29339.2
28799.2
27698.5
25132.3
18402.7
11736
10315.2
100000
100000
100000
100000
100000
100000
100000
100000
99999.7
99998.6
99993.2
99971.4
99889.2
99632.2
98944.7
97413.3
94487
89864.3
83824
77069.3
70429.2
64237.2
58673.1
53736.3
49365.7
45566.1
42286.7
39458.4
37111.9
35156
33576.3
32378.8
31569.8
30982.7
30636.7
30461.7
30415.2
30416.1
30417.8
30433.5
30471
30545.8
30642.1
30639.6
30629.7
30605.1
30553.6
30469.8
30333.4
30207.9
30023.7
29791.6
29537
29271.8
28768.6
27768.8
25585.1
19932.1
12043
10420
100000
100000
100000
100000
100000
100000
100000
100000
99999.7
99998.6
99993.4
99972.4
99892.9
99643.3
98973.5
97477.5
94606.2
90050.2
84073
77365
70744.3
64554.4
58972.8
54021.8
49638.1
45815.4
42506.6
39659.3
37276.7
35318.3
33704.5
32483.7
31649.7
31033.8
30665.9
30474.2
30416.3
30416.9
30418.5
30433.9
30470.2
30541.7
30649
30648.2
30643.1
30627
30589.3
30510.8
30360.2
30256.7
30109.1
29904.7
29673.2
29409.6
28945.6
28041.4
26153.3
21403.3
12428.8
10537.5
100000
100000
100000
100000
100000
100000
100000
100000
99999.7
99998.7
99993.5
99972.9
99894.7
99648.6
98986.2
97502.4
94650.3
90110.5
84139
77422.1
70790
64588.8
59007.5
54049.9
49658.2
45834.6
42531.6
39679
37300.6
35326.4
33714
32486.9
31650.4
31034.1
30667.2
30471.6
30408.4
30409.2
30410.8
30425.1
30458.2
30522.6
30639.5
30637.4
30629.2
30608.1
30563.3
30484.8
30337.8
30224.3
30072.6
29855
29637.2
29395.8
28972.8
28167.9
26550.3
22558
13002.2
10656.7
100000
100000
100000
100000
100000
100000
100000
100000
99999.7
99998.7
99993.7
99973.8
99897.9
99658
99010.9
97557.4
94753.9
90273.2
84359.2
77687.6
71077.6
64882.1
59284.4
54312.3
49910.6
46064.6
42735.3
39865.3
37455.1
35475.3
33838
32586.9
31733.1
31089.2
30699.5
30489.4
30415
30415.6
30417.3
30430.5
30461.2
30521.9
30641.1
30640.8
30636.9
30623.1
30589.6
30516.7
30371
30261.2
30133.3
29938
29729.7
29492.7
29123.8
28413
26960
23275.1
13998.2
10777.6
100000
100000
100000
100000
100000
100000
100000
100000
99999.7
99998.7
99993.9
99974.3
99899.7
99663.3
99023.9
97583.4
94800.1
90337.5
84431.2
77751.2
71128.2
64918.5
59322.8
54345.9
49934.3
46088.1
42762.7
39888.3
37479.6
35482.9
33844
32591.1
31730.8
31085.8
30702.8
30491.3
30412.5
30413.3
30415.3
30424.3
30453.3
30510.9
30622
30622
30617.4
30599.7
30559
30487.4
30346.7
30237.7
30111
29923
29730.5
29506.6
29181.3
28543.4
27206.3
23791.4
15156.4
10898.7
100000
100000
100000
100000
100000
100000
100000
100000
99999.8
99998.8
99994
99975
99902.4
99671.4
99045.2
97631
94890.8
90480.4
84626.2
77989.2
71389.8
65190.6
59578.1
54585
50168.6
46302.6
42953.3
40062.6
37626.9
35626.5
33965.4
32681.4
31805.6
31145.2
30736.7
30511.1
30420.3
30421.3
30425.7
30432.9
30457.2
30510.2
30612.7
30617.1
30615.6
30606.7
30580
30515.3
30386.5
30273
30158.6
29986.2
29795.1
29577.7
29282
28684
27417
24269.9
16358.7
11028.4
100000
100000
100000
100000
100000
100000
100000
100000
99999.8
99998.8
99994.2
99975.5
99904.2
99676.6
99058.1
97657.2
94937.8
90546.8
84702.2
78058
71444.9
65228
59619.5
54624.5
50193.7
46327
42980.8
40086.6
37649.9
35633.9
33968
32686
31805.7
31143.1
30741.1
30513.5
30418.3
30419.7
30423.5
30430.9
30451.2
30496.7
30590.4
30598.9
30595.5
30582.2
30548.8
30485.5
30365
30263
30151.3
29989.5
29805.9
29593.7
29310.5
28743.6
27557.2
24748.9
17584.7
11164.7
100000
100000
100000
100000
100000
100000
100000
100000
99999.8
99998.8
99994.3
99976.1
99906.5
99683.7
99076.7
97698.8
95017.6
90673.1
84875.4
78271.3
71682.6
65480.4
59854.9
54844.7
50413.4
46523.8
43155.9
40247
37787.8
35768.1
34086.5
32772.2
31876.1
31198.7
30772.2
30531.2
30424.1
30425
30428.6
30435.5
30454.9
30498.1
30576.1
30595.9
30595.1
30588.8
30567.7
30512.5
30399.1
30289.8
30182.4
30028.3
29844.3
29643.7
29372.3
28840.8
27749.5
25253.4
18830.5
11308.8
100000
100000
100000
100000
100000
100000
100000
100000
99999.8
99998.9
99994.4
99976.6
99908.2
99688.8
99089.2
97724.7
95064.3
90740.2
84953.7
78343.9
71741.5
65517.3
59897.3
54885.6
50436.9
46551
43185.5
40273
37810.7
35780.4
34088.9
32779
31879.1
31196.1
30775.5
30531.9
30420
30420.8
30422.6
30428
30446.4
30491.7
30559.8
30584.5
30582.1
30571.3
30543
30485.2
30382.7
30288.9
30185.9
30037.7
29857.5
29673.1
29413.7
28916.3
27924.7
25717.4
20090.4
11448.9
100000
100000
100000
100000
100000
100000
100000
100000
99999.8
99998.9
99994.6
99977.2
99910.3
99695
99105.6
97761.3
95135
90852.4
85108.1
78535.2
71957.4
65753
60115.3
55092
50644.5
46732.5
43346.8
40420
37938.6
35901
34201.9
32861.1
31942
31249.3
30803.7
30546.8
30421.8
30421.7
30423
30427.5
30445.9
30488.8
30556.1
30584.5
30583.9
30578.5
30559.6
30510
30406.9
30306.7
30209.4
30069.3
29894
29721.5
29471
29001.8
28083.9
26136.2
21281.7
11604.9
100000
100000
100000
100000
100000
100000
100000
100000
99999.8
99998.9
99994.7
99977.6
99911.9
99699.8
99117.7
97786.5
95180.8
90919
85187.3
78610.4
72018.9
65788.8
60158.3
55130.1
50667
46762.6
43378.5
40448.2
37961.9
35917.9
34204.1
32869.3
31945.6
31243.5
30805.8
30546.9
30416.1
30416.4
30417.5
30421.4
30439.2
30477.5
30547.9
30578
30576.1
30567
30543.2
30494.1
30398
30307.2
30216.8
30083
29913.6
29746.8
29501.3
29061.1
28207.3
26466.3
22187.2
11870
100000
100000
100000
100000
100000
100000
100000
100000
99999.8
99998.9
99994.8
99978.1
99913.7
99705.3
99132.2
97819
95243.8
91019.2
85325.4
78782.3
72215
66009.4
60360.5
55318.7
50861.3
46931.8
43528.7
40584.2
38081.9
36026.4
34310.6
32947
32002.6
31299
30832
30560.6
30417.3
30416.3
30417.5
30421.5
30438.5
30475.2
30544.3
30580
30579.3
30574
30556.2
30511.8
30418.5
30320.8
30235.9
30109.6
29944.2
29778
29539.2
29132.2
28344.4
26735.9
22715
12420.4
100000
100000
100000
100000
100000
100000
100000
100000
99999.8
99999
99994.9
99978.5
99915.2
99709.9
99143.6
97843.2
95288.1
91084.4
85404.2
78858.7
72278.4
66044.2
60404.3
55358.3
50884.5
46962.5
43561.1
40614.1
38105.6
36046.2
34313.7
32956.9
32006.8
31287.3
30833.8
30562.3
30413.5
30412.6
30413.5
30416.9
30433.5
30468.4
30535.5
30577.1
30575.2
30566.6
30545
30501.2
30417.4
30322.8
30242.5
30123.3
29962.3
29796.1
29568.8
29200.6
28475
26947.7
23084.3
13093.1
100000
100000
100000
100000
100000
100000
100000
100000
99999.8
99999
99995
99978.9
99916.8
99714.8
99156.7
97872.3
95344.7
91174.4
85528.4
79013.6
72456.6
66249.6
60591.4
55531.1
51065.8
47120
43700.7
40740.2
38218.9
36145.6
34412.8
33030.8
32056.5
31350.8
30860.1
30577.3
30418
30413.7
30415.6
30418.4
30434.2
30468.8
30531.6
30580.8
30579.4
30573.1
30554.5
30513.3
30432.2
30333.8
30255.8
30143.2
29985.3
29818.9
29606.5
29271.4
28593.6
27134.3
23511.5
13829.5
100000
100000
100000
100000
100000
100000
100000
100000
99999.8
99999
99995.1
99979.3
99918.2
99719
99167.4
97895.3
95387.1
91237.5
85605.7
79090.1
72521
66284.2
60635.7
55573.5
51088.9
47150
43733.1
40770.9
38242.9
36167.4
34417.6
33042.3
32060.8
31333.2
30863.3
30582.3
30419.6
30412.6
30414.1
30415.7
30430.4
30464.7
30522.7
30579.7
30577.8
30569.2
30549.1
30508
30430.9
30336.5
30260.6
30153.8
29999.3
29834.1
29637.7
29322.7
28681
27293.7
23912.5
14612.5
100000
100000
100000
100000
100000
100000
100000
100000
99999.8
99999
99995.2
99979.7
99919.7
99723.5
99179.2
97921.5
95438.3
91318.9
85718.1
79230.1
72683
66474.3
60808.7
55737.4
51258.6
47296
43862
40887.2
38349.4
36259.1
34510.7
33112.5
32105.7
31397.2
30888.9
30598.4
30427.1
30415.6
30417.2
30422.5
30433.1
30463.6
30519
30584.7
30582.8
30576.9
30558
30517.2
30439.3
30346.2
30269.4
30167.5
30016
29852.4
29669.7
29363
28747.5
27431.4
24295
15460.9
100000
100000
100000
100000
100000
100000
100000
100000
99999.8
99999
99995.2
99980.1
99920.9
99727.4
99189.3
97943.2
95478.6
91379.3
85793.2
79305.7
72747.7
66509.4
60852.6
55776.7
51281.1
47325.9
43894.5
40917.9
38373.5
36281.8
34516.5
33125.5
32110
31382.4
30895.4
30606.1
30432.9
30417.8
30419.3
30423.8
30432.8
30458.7
30510.5
30583.4
30581.4
30572.8
30554.1
30515.1
30438.8
30351.8
30273.7
30176.5
30028.2
29867.6
29696.1
29393.3
28796.9
27546.3
24650.7
16347.8
100000
100000
100000
100000
100000
100000
100000
100000
99999.8
99999.1
99995.3
99980.4
99922.2
99731.5
99199.9
97967
95525.1
91453.4
85895.3
79432.9
72895.4
66684.8
61013
55928.2
51439.7
47460.8
44013.2
41025.3
38473
36366.7
34603.3
33191.3
32153.1
31433.5
30919.6
30622.1
30441.4
30421.1
30422.8
30429.2
30436.7
30459.5
30506.6
30584.7
30583.8
30579
30561
30521.4
30444.2
30362.1
30281
30188.5
30043.2
29885.7
29722.3
29425.8
28847.7
27665.3
25030.2
17337.5
100000
100000
100000
100000
100000
100000
100000
100000
99999.8
99999.1
99995.4
99980.7
99923.4
99735.1
99209.4
97987.4
95563.1
91510.9
85967.5
79506.7
72959.5
66720.4
61055.8
55965.5
51461.5
47491.4
44045.9
41055.6
38496.9
36389.7
34610.3
33205.4
32159.1
31431
30926.6
30630.2
30447.6
30424.2
30426.1
30433.4
30437.8
30457.8
30502.4
30579.1
30580.9
30576.2
30560.6
30522.3
30445.7
30370
30285.8
30199
30056.8
29902.7
29745
29459.1
28904.4
27794.7
25425.7
18386.5
100000
100000
100000
100000
100000
100000
100000
100000
99999.8
99999.1
99995.5
99981.1
99924.6
99738.8
99219.1
98009.1
95605.5
91578.6
86060.9
79622.7
73094.7
66882.3
61205
56105.8
51609.8
47616.4
44155.7
41155.2
38589.8
36468.2
34691.4
33267.3
32200.3
31475.4
30950.4
30645.4
30456.1
30427.1
30429.5
30438
30440.5
30458.8
30505.3
30573
30581.7
30579.3
30565.5
30529
30452.3
30379.9
30292.2
30212.1
30072.7
29921.3
29767.1
29496.3
28975.3
27950.9
25861.7
19489
100000
100000
100000
100000
100000
100000
100000
100000
99999.8
99999.1
99995.6
99981.4
99925.7
99742.2
99227.8
98028.1
95641.3
91633
86129.7
79694
73157.4
66918.1
61246.4
56142.7
51631
47647.2
44188.5
41185.1
38613.5
36491.2
34699.2
33282.4
32208.4
31471.9
30956.6
30652.7
30461.3
30429.1
30431.8
30440.7
30442
30458.4
30506.3
30564.3
30580.5
30576.4
30564.8
30532.1
30458.6
30388.1
30298.5
30223.6
30087.6
29938.6
29786.6
29532.6
29053.1
28121.3
26294.5
20602.8
100000
100000
100000
100000
100000
100000
100000
100000
99999.8
99999.1
99995.6
99981.6
99926.7
99745.5
99236.7
98048
95680.2
91695.4
86215.7
79800.5
73281.6
67067.5
61385.4
56273.6
51769.7
47763
44290.5
41277.7
38700
36563.9
34775.1
33340.2
32247.5
31514.6
30978.7
30666.1
30468.8
30430.8
30433.6
30443.4
30443.6
30458.8
30507.4
30559.7
30581.2
30578.5
30567.5
30537.4
30468.1
30397
30306.7
30235.5
30103.5
29956
29805.7
29568.6
29132.8
28293.3
26700.3
21582.2
100000
100000
100000
100000
100000
100000
100000
100000
99999.8
99999.1
99995.7
99981.9
99927.7
99748.6
99244.8
98065.7
95713.5
91746.4
86280.8
79868.7
73342.4
67103.3
61425.1
56309.2
51790.5
47793.8
44323
41307
38723.5
36586.2
34783.1
33355.7
32256.6
31513.3
30984.6
30672.2
30472.9
30431.4
30434.6
30445.2
30444
30458.5
30504.5
30556.7
30580.7
30577.7
30567.4
30540
30476.8
30404.4
30314.6
30246.1
30118.2
29971.7
29822.8
29600.1
29201
28431.5
27001.2
22310.4
100000
100000
100000
100000
100000
100000
100000
100000
99999.8
99999.2
99995.8
99982.2
99928.7
99751.7
99252.9
98084.1
95749.4
91804.1
86360.3
79967
73457
67241.3
61554.8
56430.4
51919.8
47900.9
44417.6
41393.2
38804
36653.7
34853.8
33409.3
32293.9
31554.8
31004.7
30683.6
30479.1
30432.2
30435.3
30446.4
30444.2
30458.9
30501.1
30556.7
30581
30578.6
30568.9
30543.3
30486.9
30411.9
30323.4
30256.4
30132.8
29986.9
29839.4
29628.4
29256.4
28531.7
27205
22776.1
100000
100000
100000
100000
100000
100000
100000
100000
99999.8
99999.2
99995.8
99982.4
99929.6
99754.6
99260.4
98100.5
95780.4
91851.8
86421.5
80031.6
73515.2
67276.7
61592.7
56465.2
51941.1
47931.5
44449.5
41421.7
38827.2
36675.3
34862.1
33424.6
32304
31550.9
31009.8
30688.4
30482.1
30432
30435.5
30446.8
30443.7
30458.3
30496.6
30556.8
30581.1
30578.8
30569.1
30545.1
30495.5
30417.9
30331.5
30265.2
30145.8
30000.3
29853.9
29651.8
29295
28593.2
27305.3
23091
100000
100000
100000
100000
100000
100000
100000
100000
99999.8
99999.2
99995.9
99982.7
99930.5
99757.4
99268
98117.5
95813.7
91905.5
86495.5
80122.9
73621.5
67404.4
61713.8
56577.1
52061
48030.3
44537.2
41502.1
38901.9
36738
34927.7
33474.3
32339.4
31593.5
31028.2
30698.3
30487.2
30432.4
30435.7
30446.9
30443.2
30457.7
30493.3
30558
30581.9
30579.7
30570.7
30548.4
30503.8
30423.9
30339.7
30273.4
30158.4
30012.9
29868
29673.6
29327.7
28646
27410.1
23395.4
100000
100000
100000
100000
100000
100000
100000
100000
99999.8
99999.2
99995.9
99982.9
99931.3
99760.1
99274.8
98132.6
95842.3
91949.9
86552.6
80183.7
73676.7
67439
61750.1
56611.4
52083.3
48060.5
44568
41529.5
38924.6
36758.7
34936.1
33489
32349.4
31588.9
31033.1
30702.3
30489.4
30432.2
30435.6
30446.6
30442.2
30456.7
30491.2
30557.8
30582.5
30580.6
30572.1
30551.3
30509.9
30428.9
30347
30279.7
30169.4
30023.7
29880.1
29692.2
29357.4
28697.7
27538.8
23780.1
100000
100000
100000
100000
100000
100000
100000
100000
99999.8
99999.2
99996
99983.1
99932.2
99762.7
99281.8
98148.4
95873.3
92000
86621.9
80269
73775.7
67557.4
61863.2
56715.8
52194.5
48151.8
44649.6
41604.5
38994.2
36817.2
34996.9
33535
32383.1
31628.2
31049.9
30711.3
30493.9
30432.8
30435.9
30446.1
30441.3
30455.9
30490.8
30557.4
30583.7
30582
30574.5
30554.8
30514.9
30435.3
30354.4
30285.3
30179.9
30034
29892.1
29711
29391
28759.4
27703.4
24181.4
100000
100000
100000
100000
100000
100000
100000
100000
99999.8
99999.2
99996
99983.3
99932.9
99765.1
99288.1
98162.4
95899.7
92041.1
86674.8
80325.6
73827.6
67591
61897.9
56749.2
52217
48181.2
44679.3
41630.9
39016.4
36837.1
35005.7
33549
32392.5
31625.8
31054.7
30715.2
30496.2
30433.1
30436
30445.4
30440.3
30454.9
30490
30556.9
30584.8
30583.4
30576.4
30557.3
30517.6
30442.1
30361
30289.5
30188.4
30042.6
29902.1
29726.6
29419.7
28813
27836.7
24531.3
100000
100000
100000
100000
100000
100000
100000
100000
99999.8
99999.2
99996.1
99983.5
99933.7
99767.6
99294.6
98177.2
95928.7
92088.2
86740.1
80405.8
73920.3
67701
62003.5
56848
52320.5
48266
44755.4
41701.2
39081.2
36891.7
35062.1
33591.6
32424.4
31660.9
31070.4
30723.9
30500.9
30434.1
30436.6
30444.9
30439.5
30454.1
30489.3
30557
30586.5
30585.3
30578.6
30560
30520.8
30449.6
30367.4
30293.7
30196.4
30051.2
29912.2
29742.3
29447.2
28863.3
27955.9
24831.4
100000
100000
100000
100000
100000
100000
100000
100000
99999.8
99999.2
99996.1
99983.7
99934.4
99769.8
99300.4
98190
95952.8
92125.9
86788.8
80458.1
73968.7
67733.2
62036.6
56879.8
52342.4
48294.5
44783.8
41726.4
39102.5
36910.8
35071.2
33604.7
32433.4
31659.6
31075.5
30728.2
30503.7
30434.8
30437.1
30444.5
30439
30453.6
30488.5
30556.5
30588
30586.9
30580.3
30562
30523.3
30455.7
30372.5
30296.7
30202.6
30058
29920.3
29754.2
29467.5
28900.8
28046.6
25095.4
100000
100000
100000
100000
100000
100000
100000
100000
99999.8
99999.2
99996.2
99983.9
99935.1
99772.1
99306.5
98203.8
95980.1
92170.5
86850.5
80533.9
74055.7
67835.5
62135
56973.6
52438.7
48373.5
44854.9
41792.6
39163
36961.9
35123.4
33644.4
32463.4
31691.1
31090.5
30737
30508.8
30436.4
30438.2
30444.6
30439
30453.5
30488.1
30555.9
30589.6
30588.6
30582.3
30564.7
30526.9
30461.9
30377.8
30300
30208.9
30065.3
29929.1
29767.2
29490
28942.1
28137
25316.5
100000
100000
100000
100000
100000
100000
100000
100000
99999.8
99999.3
99996.2
99984.1
99935.7
99774.1
99311.7
98215.5
96002.1
92205
86895.1
80581.9
74100.6
67866.4
62166.5
57002.6
52459.6
48400.9
44881.9
41816.6
39183.4
36980.1
35133
33656.8
32471.9
31690.9
31096
30741.8
30512.2
30437.6
30439.2
30445
30439.4
30453.8
30487.8
30554.6
30590.7
30589.8
30583.8
30566.7
30529.7
30466.4
30381.6
30302
30213.5
30070.9
29935.8
29776.7
29506.3
28972.3
28198.9
25495
100000
100000
100000
100000
100000
100000
100000
100000
99999.8
99999.3
99996.2
99984.3
99936.4
99776.2
99317.5
98228.6
96028
92247.3
86953.8
80653.9
74182.7
67961.6
62258.3
57090.5
52549
48474.5
44948.5
41878.8
39240
37028
35181.3
33693.8
32500.1
31720.5
31110.5
30750.7
30517.7
30439.6
30440.9
30445.7
30440.2
30454.5
30487.7
30553.1
30591.9
30590.9
30585.4
30569.2
30533.4
30471.3
30386.1
30304.7
30218.8
30077.6
29944.1
29788.7
29526.3
29007.8
28258
25641.9
100000
100000
100000
100000
100000
100000
100000
100000
99999.8
99999.3
99996.3
99984.4
99936.9
99778.1
99322.2
98239.2
96047.9
92278.6
86994.2
80697.6
74223.9
67991.1
62288.1
57117
52569.1
48500.8
44974
41901.5
39259.2
37045.3
35191.1
33705.5
32508.2
31720.7
31116.2
30755.8
30521.5
30441.2
30442.4
30446.6
30441.2
30455.1
30487.4
30551.3
30592.5
30591.6
30586.2
30570.6
30536
30474.6
30389.1
30306.2
30222.5
30082.4
29949.9
29796.7
29539.4
29030.9
28295.1
25763.9
100000
100000
100000
100000
100000
100000
100000
100000
99999.8
99999.3
99996.3
99984.6
99937.6
99780.1
99327.7
98251.6
96072.5
92319
87050.3
80766.1
74301.6
68079.7
62373.9
57198.5
52651.5
48569.5
45036.5
41960.1
39312.3
37090.3
35235.9
33740.2
32534.7
31748.1
31130.2
30764.8
30527.4
30443.5
30444.3
30447.6
30442.1
30455.8
30487
30549.4
30593.2
30592.2
30587.3
30572.4
30539.4
30478.9
30393
30308.9
30227.6
30089.2
29958.1
29808.5
29558.9
29064.6
28340.5
25870.8
100000
100000
100000
100000
100000
100000
100000
100000
99999.8
99999.3
99996.3
99984.7
99938.1
99781.7
99331.9
98261.1
96090.3
92347.1
87086.7
80805.7
74339.4
68107.9
62402.2
57223.5
52671.9
48594.5
45060.3
41981.4
39330.4
37106.5
35245.8
33751.3
32542.6
31748.8
31135.9
30770
30531.3
30445.2
30446
30448.7
30443
30456.3
30486.5
30547.2
30593.4
30592.5
30587.6
30573.2
30541.4
30481.6
30395.1
30310.1
30230.8
30093.6
29963.2
29815.4
29570.3
29085.1
28366.8
25960.3
100000
100000
100000
100000
100000
100000
100000
100000
99999.9
99999.3
99996.4
99984.9
99938.7
99783.6
99337.1
98273.1
96113.9
92386
87140.6
80871.2
74413
68190.3
62482.2
57298.9
52746.1
48658.7
45119.1
42036.5
39380.5
37148.9
35287.4
33783.8
32567.6
31773.8
31149.3
30778.9
30537.2
30447.4
30447.8
30449.7
30443.8
30456.7
30486
30544.9
30593.5
30592.7
30588.3
30574.6
30544
30485.8
30398.8
30313.2
30236.3
30100.9
29971.9
29827.5
29590.3
29119.8
28407.3
26043.5
100000
100000
100000
100000
100000
100000
100000
100000
99999.9
99999.3
99996.4
99985
99939.1
99785.1
99340.9
98281.5
96129.7
92411
87173.1
80906.7
74447.4
68217.3
62509.1
57322.9
52767.7
48682.3
45141.3
42056.3
39397.4
37163.9
35297.2
33794.4
32575.2
31775
31154.8
30783.9
30541
30448.9
30449.3
30450.6
30444.3
30456.9
30485.3
30542.5
30593.3
30592.5
30588.1
30574.8
30544.9
30488.1
30400.2
30314.2
30239.1
30104.9
29976.4
29833.3
29600
29137.9
28425.6
26113.6
100000
100000
100000
100000
100000
100000
100000
100000
99999.9
99999.3
99996.4
99985.2
99939.7
99787
99345.9
98293
96152.5
92448.5
87225.1
80969.6
74517.2
68293.8
62583.7
57392.1
52834.4
48742.5
45196.7
42108.2
39444.9
37204.2
35335.9
33824.9
32598.9
31798
31167.6
30792.8
30546.9
30450.9
30450.9
30451.4
30444.8
30457
30484.6
30539.9
30593
30592.3
30588.8
30575.9
30546.9
30492.3
30404.1
30318
30245.4
30113.2
29985.8
29845.9
29621
29174.4
28469
26185.5
100000
100000
100000
100000
100000
100000
100000
100000
99999.9
99999.3
99996.5
99985.3
99940.1
99788.2
99349.1
98300.3
96166.3
92470.4
87253.6
81001.2
74548.6
68319.8
62609.4
57414.9
52857.1
48764.5
45217
42126.4
39460.7
37217.9
35345.5
33835
32606.1
31799
31172.6
30797.3
30550.3
30452.2
30452.1
30452.2
30445.1
30456.9
30483.8
30537.6
30592.4
30591.8
30588
30575.6
30547
30494.1
30405.1
30318.8
30247.9
30116.4
29989.5
29850.2
29628.5
29189.4
28477.7
26246
100000
100000
100000
100000
100000
100000
100000
100000
99999.9
99999.3
99996.5
99985.4
99940.6
99790
99354.1
98311.6
96188.5
92507
87304.1
81061.6
74614.7
68390.8
62678.9
57479.3
52918.2
48821.2
45269.4
42175.3
39505.5
37256.4
35381.7
33863.7
32628.6
31819.6
31184.8
30806.2
30556.3
30454.1
30453.1
30452.7
30445.3
30456.7
30482.7
30534.9
30591.8
30591.3
30588.8
30576.3
30548.5
30498.5
30409.4
30323.3
30255.2
30125.9
29999.9
29863.7
29650.9
29228.2
28537.2
26318.6
100000
100000
100000
100000
100000
100000
100000
100000
99999.9
99999.3
99996.6
99985.7
99941.5
99792.9
99361.6
98328.6
96220.6
92558
87370.5
81136.7
74691.6
68459.3
62745.7
57537.5
52978.8
48877.4
45320.7
42221.3
39546
37290.2
35407.2
33889.8
32647.5
31824.4
31196.5
30814.4
30561.2
30454.4
30453.2
30452.3
30444.6
30455.7
30480.2
30529.1
30588.8
30588.7
30585.5
30574.4
30547.9
30501.9
30411.4
30325.5
30260.5
30132.1
30006.1
29870.4
29662.7
29256.6
28505.3
26368.8
100000
100000
100000
100000
100000
100000
100000
100000
99999.9
99999.3
99996.5
99985.5
99940.8
99790.4
99353.8
98309.4
96179.6
92488.8
87269.9
81011.3
74556
68326.5
62624.7
57433.7
52875
48783
45235.3
42145
39481.2
37232
35363
33843.9
32613.9
31806.2
31179.4
30809.1
30561.4
30455.8
30455.5
30454.4
30446.2
30457
30481.1
30528.5
30587.2
30586.5
30582.3
30569.8
30541.4
30501.4
30412.5
30329.2
30266.6
30137.8
30007.5
29865.2
29644.5
29215
28383.4
26411
100000
100000
100000
100000
100000
100000
100000
100000
99999.9
99999.3
99996.6
99985.8
99941.6
99793.4
99361.7
98328.3
96217.5
92552.5
87359.8
81124.1
74684.7
68463.8
62754.6
57549.1
52993.6
48875.7
45317.9
42220.5
39552.8
37289.3
35414.9
33893.2
32653.2
31838.8
31204.1
30826.6
30572.8
30459.1
30458
30455.8
30446.2
30456.3
30478.1
30521.6
30583.2
30582.6
30579.4
30568.6
30543.3
30509.1
30427.5
30346.6
30287.9
30165.5
30033.9
29898.9
29690.9
29285.2
28475.1
26626.9
100000
100000
100000
100000
100000
100000
100000
100000
99999.9
99999.3
99996.6
99985.7
99941.4
99792.4
99357.7
98317
96189.7
92501.7
87276.9
81008.6
74545.3
68305.3
62609.3
57413.2
52861.1
48776
45231.9
42141.7
39483.2
37228.9
35360.1
33838.5
32614.1
31801.9
31188.6
30822.5
30571.9
30457.6
30456.6
30454.5
30445.7
30456.1
30478.2
30522.2
30580.7
30579.7
30575
30562.5
30535
30500.5
30419.8
30342.7
30283.5
30168.4
30021.3
29873.2
29650
29228.3
28400.4
26667.6
100000
100000
100000
100000
100000
100000
100000
100000
99999.9
99999.4
99996.6
99985.9
99941.9
99794.2
99362.7
98329.4
96215.6
92548.7
87347.9
81107.5
74671.4
68461.4
62760.9
57550.6
53005.6
48878.8
45317.4
42217.5
39556.8
37290.9
35429.3
33907.8
32671.7
31866.4
31223.1
30839.7
30582.8
30461.5
30459.5
30457.9
30448.7
30458.2
30480.1
30523.4
30581.7
30581.2
30578.2
30567.8
30544
30507.5
30427.1
30359.1
30303.7
30211.2
30060.4
29923.8
29720
29325.1
28542.7
26883.4
100000
100000
100000
100000
100000
100000
100000
100000
99999.9
99999.4
99996.6
99985.9
99942
99794.2
99361.4
98324.2
96199.6
92515.1
87284.9
81008
74537.2
68287.4
62593.8
57387.9
52845.6
48766.3
45230.2
42137.3
39484.2
37224.1
35360.7
33839.2
32616.2
31797.7
31187.8
30821.5
30572.4
30455.2
30453.3
30452.6
30444.5
30454.8
30478.7
30524.9
30577.3
30576.4
30571.8
30559.4
30533.3
30497.6
30418.2
30353.6
30292.1
30210.6
30042.4
29886.4
29653.2
29238.3
28426.1
26762.3
100000
100000
100000
100000
100000
100000
100000
100000
99999.9
99999.4
99996.7
99986
99942.3
99795.3
99364.4
98332
96215.7
92547.4
87335.7
81087.4
74651.2
68450.7
62762.9
57569.3
53021.6
48883.9
45319.5
42216.3
39560.2
37292.2
35442.5
33923.2
32685.3
31875.3
31225.2
30835.9
30581.1
30460.6
30457.2
30456.4
30448.2
30457.8
30481.1
30528.8
30580.9
30580.4
30577.7
30568.1
30546.5
30514.4
30445.2
30386.6
30322.9
30255.5
30104.3
29957.2
29753.7
29397.2
28695.8
27250.8
100000
100000
100000
100000
100000
100000
100000
100000
99999.9
99999.4
99996.7
99986.1
99942.5
99795.9
99364.9
98331.2
96209.1
92528.4
87293.1
81009
74531.6
68274
62579.9
57356.2
52826.3
48755.7
45227.2
42131.3
39486.2
37221.3
35364.9
33841.6
32610
31787
31172.3
30809.7
30565.8
30452.3
30449.9
30449.4
30443
30453.3
30478
30527.9
30571.8
30571
30566.8
30555.6
30531.5
30501.4
30436.9
30385.7
30322.5
30247.7
30078.1
29918.6
29684
29286.9
28508.6
26915.1
100000
100000
100000
100000
100000
100000
100000
100000
99999.9
99999.4
99996.7
99986.2
99942.8
99796.8
99366.8
98335.9
96218.3
92548.1
87324.9
81065.2
74624.4
68430.3
62757.9
57590.1
53040.7
48887
45316.9
42213.4
39562.2
37290.2
35444.4
33925.6
32687.5
31877.9
31234.6
30840.5
30583.5
30461.9
30458.5
30457.9
30452
30461.6
30484.8
30531.9
30577.5
30577.1
30574.6
30565.9
30545.8
30512.3
30455.9
30410.8
30356.5
30289.2
30128.3
29981.7
29772.7
29418.3
28721.8
27293.4
100000
100000
100000
100000
100000
100000
100000
100000
99999.9
99999.4
99996.7
99986.3
99943.1
99797.7
99368.3
98337.7
96218.4
92540.4
87301.1
81010.2
74527.7
68265.1
62568.5
57315.9
52796.3
48744.6
45224.3
42127.8
39489
37219.3
35368.3
33846.2
32610.9
31787.2
31174.8
30813.9
30568.6
30451.7
30450.7
30450.7
30446.5
30457
30481.6
30531.3
30567.9
30566.9
30562.4
30550.1
30523.6
30481.7
30428.5
30390.9
30338.8
30269.4
30104.3
29936.2
29702
29319.3
28568.2
27033.8
100000
100000
100000
100000
100000
100000
100000
100000
99999.9
99999.4
99996.8
99986.4
99943.4
99798.5
99370.2
98341.2
96224.2
92550.6
87317.3
81042.9
74592.3
68399.3
62743.4
57595.1
53059.8
48896.1
45315.2
42211.1
39565.3
37292.1
35449.4
33931.9
32697.4
31900.3
31251.6
30844.7
30584
30459.5
30456.9
30457.7
30453.6
30463.3
30486.6
30533.9
30579.6
30579.2
30576.8
30568.8
30550.1
30512.8
30459.8
30417.2
30373
30285.9
30135.7
29988.3
29775.3
29419.2
28719.4
27283.9
100000
100000
100000
100000
100000
100000
100000
100000
99999.9
99999.4
99996.8
99986.4
99943.7
99799.4
99372.1
98344.3
96228.1
92550.7
87308.3
81010.2
74523.8
68260
62562
57293
52770.2
48730.3
45219.8
42125.2
39491.5
37220.7
35373
33853.8
32615.9
31799.6
31184.7
30817.1
30573.8
30456
30452.9
30453.5
30449.5
30458
30479.6
30525.6
30555.7
30555.3
30552.3
30542.9
30522.2
30482.5
30436
30395.1
30342.2
30250.6
30105.9
29952.3
29728.8
29366.4
28654.7
27198.4
100000
100000
100000
100000
100000
100000
100000
100000
99999.9
99999.4
99996.8
99986.5
99944.1
99800.2
99374.2
98347.7
96233.2
92555.8
87314.4
81022
74557.6
68357.7
62716.1
57582.7
53067.5
48904.3
45315.4
42207.4
39566
37295.4
35457.3
33940.9
32706.1
31906.7