/*--------------------------------*- C++ -*----------------------------------*\
| =========                 |                                                 |
| \\      /  F ield         | OpenFOAM: The Open Source CFD Toolbox           |
|  \\    /   O peration     | Version:  5.x                                   |
|   \\  /    A nd           | Web:      www.OpenFOAM.org                      |
|    \\/     M anipulation  |                                                 |
\*---------------------------------------------------------------------------*/
/*   Windows 32 and 64 bit porting by blueCAPE: http://www.bluecape.com.pt   *\
|  Based on Windows porting (2.0.x v4) by Symscape: http://www.symscape.com   |
\*---------------------------------------------------------------------------*/
FoamFile
{
    version     2.0;
    format      ascii;
    class       surfaceScalarField;
    location    "0.004";
    object      phi;
}
// * * * * * * * * * * * * * * * * * * * * * * * * * * * * * * * * * * * * * //

dimensions      [1 0 -1 0 0 0 0];

internalField   nonuniform List<scalar> 
19740
(
1.13822e-011
-3.89022e-013
9.8186e-011
-1.01776e-011
8.79301e-010
-7.04512e-011
6.64147e-009
-5.58164e-010
5.01158e-008
-3.56451e-009
3.29025e-007
-2.35247e-008
2.08508e-006
-1.29597e-007
1.17014e-005
-6.98031e-007
6.1707e-005
-3.22173e-006
0.000290494
-1.38779e-005
0.00125472
-5.10852e-005
0.0048168
-0.000160568
0.0166553
-0.000563488
0.0486673
-0.0014478
0.122419
-0.00319259
0.264493
-0.00515998
0.496132
-0.0082709
0.802396
-0.00942759
1.13689
-0.00764192
1.45198
-0.00458065
1.72235
-0.00172295
1.93989
-0.00222195
2.11545
0.00279862
2.25037
-0.00238188
2.33444
0.00291077
2.41562
0.00324262
2.47996
0.00392391
2.49946
0.00296766
2.48688
0.00662871
2.46937
0.000720933
2.48399
0.00440418
2.52553
0.0104841
2.54687
-0.00449692
2.55551
-0.0121724
2.56454
-0.0215313
2.57091
-0.0273843
2.56277
-0.0515679
2.44306
-0.0613458
2.2095
-0.0561396
2.01597
-0.041286
1.86835
-0.0244569
1.77517
-0.0223099
1.71995
-0.0144115
1.69489
-0.00921652
1.68986
-0.00630969
1.68919
-0.00535006
1.68606
-0.00759127
1.70996
0.00364669
1.73254
0.00991501
1.73319
0.0135341
1.71743
0.0142893
1.69379
0.0196796
1.65162
0.0131631
1.59715
0.0179844
1.42706
0.0686521
1.08738
0.0994421
0.280485
-0.00627967
0.0606178
0.115887
0.00992711
0.0167325
0.000464221
1.06918e-011
-1.16351e-012
9.09324e-011
-1.78746e-011
8.10977e-010
-1.22286e-010
6.05268e-009
-9.64898e-010
4.55252e-008
-6.02747e-009
2.96214e-007
-3.94806e-008
1.87274e-006
-2.12299e-007
1.04496e-005
-1.12965e-006
5.5043e-005
-5.07355e-006
0.000258542
-2.14616e-005
0.00111806
-7.664e-005
0.0043031
-0.000234785
0.0149327
-0.000804761
0.0438183
-0.00201912
0.110829
-0.00441993
0.240856
-0.00666089
0.454943
-0.0110543
0.741196
-0.0123764
1.05786
-0.0099232
1.35964
-0.00522264
1.62121
-0.00172477
1.83335
-0.00315461
2.00535
0.00545648
2.13876
-0.00658318
2.22462
0.00527009
2.3079
0.0056099
2.3709
0.00547521
2.39047
0.00196786
2.38358
0.00724746
2.37827
-0.00595243
2.40366
0.0139018
2.4416
0.0102602
2.45481
-0.0116205
2.45635
-0.0199598
2.45862
-0.0360409
2.45969
-0.0497194
2.43659
-0.0834507
2.31296
-0.103641
2.07716
-0.0930671
1.87838
-0.0634277
1.73226
-0.0329476
1.63877
-0.0206053
1.58876
-0.0127084
1.56248
-0.00119738
1.55246
0.00365366
1.54598
0.00550679
1.54318
0.0070617
1.54046
0.0218276
1.52946
0.0322976
1.50617
0.0383538
1.47479
0.0344162
1.44021
0.0403192
1.3944
0.031617
1.33011
0.038011
1.23859
0.0762748
1.03038
0.0705594
0.318792
-0.163991
0.0877829
0.180264
0.0154584
0.0247097
0.00156825
1.02457e-011
-2.89546e-012
8.70457e-011
-2.52793e-011
7.78118e-010
-1.72987e-010
5.80914e-009
-1.37215e-009
4.3817e-008
-8.59706e-009
2.85554e-007
-5.66013e-008
1.81086e-006
-3.06389e-007
1.0128e-005
-1.64237e-006
5.35092e-005
-7.45639e-006
0.000251974
-3.18948e-005
0.00109237
-0.000115878
0.00421085
-0.000361969
0.0146465
-0.00124564
0.0430785
-0.00318068
0.109135
-0.00705548
0.237383
-0.0109047
0.448626
-0.0181611
0.730907
-0.0207414
1.0423
-0.0168337
1.33804
-0.00963787
1.59318
-0.00356847
1.80026
-0.00451119
1.96501
0.00625942
2.09492
-0.00638064
2.18215
0.00623859
2.24813
0.00638612
2.30995
0.0096439
2.3429
0.0039616
2.33992
0.0105672
2.3213
-0.00412646
2.31432
0.0149987
2.33574
0.014279
2.35542
-0.012593
2.36047
-0.019701
2.35761
-0.0372865
2.35181
-0.0513154
2.33349
-0.0908905
2.2495
-0.118357
2.03966
-0.113114
1.85693
-0.0881316
1.71763
-0.051671
1.618
-0.0251836
1.56027
-0.0206115
1.53252
-0.00911079
1.52145
-0.000972846
1.51692
0.00577568
1.5098
0.0112719
1.51619
0.0246699
1.52333
0.0370023
1.51921
0.0427999
1.50641
0.0371546
1.48852
0.0422993
1.45625
0.0379055
1.39657
0.0576981
1.28461
0.0912889
1.03899
0.070154
0.365876
-0.216692
0.107026
0.231367
0.0192999
0.0321923
0.00561568
9.65334e-012
-2.8999e-012
8.11067e-011
-3.05853e-011
7.23339e-010
-2.1035e-010
5.34623e-009
-1.67416e-009
4.02353e-008
-1.04027e-008
2.60137e-007
-6.83798e-008
1.64641e-006
-3.67039e-007
9.15813e-006
-1.96163e-006
4.83215e-005
-8.82947e-006
0.000226965
-3.76088e-005
0.00098435
-0.000135459
0.00380152
-0.000423406
0.0132593
-0.00143421
0.0391275
-0.00364742
0.099555
-0.00808197
0.21762
-0.0122407
0.413689
-0.0207547
0.678231
-0.0236634
0.973368
-0.0193811
1.25672
-0.0106826
1.50344
-0.00419295
1.70545
-0.004271
1.86527
0.00468744
1.99415
-0.00432922
2.09027
0.00537515
2.14494
0.00772728
2.19869
0.00974762
2.24689
0.00455399
2.26324
0.0107841
2.25109
-0.00514449
2.2343
0.0138389
2.23898
0.00858167
2.25556
-0.0125071
2.26453
-0.0188579
2.26029
-0.0329088
2.24904
-0.0434976
2.21836
-0.0793543
2.11614
-0.108281
1.88719
-0.111113
1.70097
-0.0933936
1.5739
-0.061195
1.49222
-0.0327439
1.44476
-0.0280255
1.41824
-0.0138203
1.40253
-0.00248216
1.39588
0.0043994
1.3931
0.0121257
1.39428
0.0278202
1.39658
0.0462009
1.38891
0.050473
1.37284
0.0462604
1.35197
0.0494316
1.32648
0.0488073
1.28772
0.0601878
1.21027
0.078597
1.04218
0.0317232
0.532929
-0.206725
0.135714
0.243776
0.0258585
0.0435152
0.0130066
9.19428e-012
-3.7339e-012
7.69885e-011
-3.56888e-011
6.88552e-010
-2.45879e-010
5.08386e-009
-1.96596e-009
3.83858e-008
-1.22166e-008
2.484e-007
-8.05939e-008
1.57761e-006
-4.33913e-007
8.79474e-006
-2.33055e-006
4.65676e-005
-1.0556e-005
0.000219347
-4.53058e-005
0.00095421
-0.000164881
0.00369299
-0.000523165
0.0129174
-0.00176794
0.0382334
-0.00456779
0.0975134
-0.0102018
0.213465
-0.0157601
0.406295
-0.0268069
0.666618
-0.0310467
0.956581
-0.0257882
1.23401
-0.0148218
1.47463
-0.00641074
1.67123
-0.00490579
1.82632
0.00337012
1.9504
-0.00213593
2.04209
0.00535503
2.09485
0.00876479
2.14656
0.0109579
2.19109
0.00699564
2.20392
0.0152793
2.18958
-0.00256866
2.17001
0.0158788
2.17057
0.00214958
2.18498
-0.00852321
2.19086
-0.0140626
2.18416
-0.0275303
2.16982
-0.0323792
2.13902
-0.0646985
2.04012
-0.0940434
1.82181
-0.106697
1.64697
-0.0995919
1.52933
-0.0744256
1.45369
-0.0454947
1.40936
-0.0395719
1.38775
-0.024956
1.37853
-0.0125737
1.37394
-0.00158009
1.37072
0.00958393
1.37388
0.0258023
1.38237
0.0446047
1.38565
0.0469295
1.3808
0.0469669
1.36812
0.0509593
1.34604
0.0550276
1.30695
0.0707625
1.22823
0.0878988
1.05892
0.0573627
0.692828
-0.1345
0.157444
0.199013
0.032801
0.0633474
0.0217163
8.67623e-012
-4.17266e-012
7.20008e-011
-3.96474e-011
6.43596e-010
-2.73174e-010
4.71207e-009
-2.18646e-009
3.55421e-008
-1.35145e-008
2.28431e-007
-8.91496e-008
1.4489e-006
-4.77781e-007
8.03756e-006
-2.564e-006
4.25091e-005
-1.15661e-005
0.000199717
-4.9592e-005
0.000868723
-0.000179742
0.00336661
-0.00057461
0.011801
-0.00190386
0.0350179
-0.00496112
0.0896111
-0.0110466
0.196965
-0.0171416
0.376713
-0.0290239
0.621308
-0.033854
0.896324
-0.0285791
1.16215
-0.0161612
1.39486
-0.00707233
1.58578
-0.00485415
1.73773
0.00218884
1.86063
-0.000420328
1.95008
0.00475647
2.00464
0.00906875
2.06017
0.0124437
2.1045
0.0077011
2.11581
0.0167783
2.10335
-0.00482708
2.08927
0.0143971
2.10039
0.00461331
2.11912
-0.00742862
2.12367
-0.0146104
2.11678
-0.0298228
2.10481
-0.0289078
2.07442
-0.0510537
1.97891
-0.0824963
1.76137
-0.102701
1.57915
-0.0990388
1.45249
-0.0765556
1.37579
-0.0512346
1.33298
-0.0479045
1.30961
-0.0308743
1.29744
-0.0165701
1.29133
-0.00512394
1.28771
0.0080284
1.28851
0.0249948
1.29312
0.0481954
1.29237
0.0490712
1.28474
0.0514606
1.27205
0.0538531
1.25707
0.0581134
1.2301
0.0681802
1.18285
0.0816003
1.08113
0.0530203
0.748061
-0.0664396
0.185002
0.127558
0.0430698
0.0964443
0.0291515
8.2356e-012
-4.56524e-012
6.8007e-011
-4.28466e-011
6.09803e-010
-2.97959e-010
4.45475e-009
-2.39128e-009
3.37151e-008
-1.47654e-008
2.16698e-007
-9.76722e-008
1.37937e-006
-5.24265e-007
7.66526e-006
-2.82384e-006
4.0688e-005
-1.27924e-005
0.000191697
-5.51692e-005
0.000836605
-0.000201356
0.00325028
-0.000652607
0.0114284
-0.00214273
0.0340309
-0.00569052
0.0873417
-0.0127204
0.192357
-0.0201494
0.368571
-0.0340395
0.608734
-0.0403067
0.878714
-0.0346469
1.13892
-0.0200137
1.36576
-0.00927776
1.55161
-0.00553358
1.69909
0.0012271
1.81732
0.00132755
1.9036
0.00471668
1.95583
0.00958145
2.00805
0.0147029
2.04967
0.010966
2.05948
0.0216158
2.04496
-0.00132637
2.02893
0.0177645
2.03477
0.00533468
2.05296
-0.00441523
2.05856
-0.0131595
2.05424
-0.0330656
2.04521
-0.0296528
2.02341
-0.0439131
1.94548
-0.0766945
1.74565
-0.100805
1.56982
-0.10276
1.44695
-0.0841355
1.37186
-0.0627851
1.32609
-0.0583656
1.30086
-0.0391437
1.28778
-0.0233162
1.28005
-0.0098436
1.27747
0.00303267
1.27779
0.0212362
1.28417
0.0476209
1.28779
0.0494873
1.28392
0.0532577
1.27259
0.056811
1.25589
0.0643328
1.22802
0.075338
1.18701
0.0897541
1.08319
0.0812539
0.773667
0.00118612
0.212041
0.048111
0.0545824
0.139162
0.0335491
7.77909e-012
-3.93108e-012
6.37367e-011
-4.56994e-011
5.72075e-010
-3.17065e-010
4.14911e-009
-2.54761e-009
3.14065e-008
-1.56714e-008
2.00685e-007
-1.0372e-007
1.2768e-006
-5.55201e-007
7.06497e-006
-2.99064e-006
3.74723e-005
-1.35219e-005
0.000176128
-5.83335e-005
0.00076842
-0.000212478
0.00298818
-0.000695101
0.0105251
-0.00223248
0.0314037
-0.0060288
0.0808084
-0.0134125
0.178552
-0.0215185
0.343494
-0.035937
0.569745
-0.0430334
0.826021
-0.0375163
1.07523
-0.0216815
1.29455
-0.0100445
1.47501
-0.00546677
1.6191
0.000337907
1.73577
0.00281762
1.82086
0.00378828
1.87392
0.0112872
1.92778
0.0152745
1.96956
0.0112285
1.97951
0.0221124
1.96808
-0.000340139
1.95499
0.0183036
1.96698
0.0119246
1.98785
-0.00636902
1.99398
-0.0147774
1.99078
-0.0373019
1.98427
-0.0330392
1.96266
-0.0392579
1.88291
-0.0726678
1.68392
-0.0999872
1.50928
-0.104752
1.38607
-0.0869899
1.30925
-0.0679308
1.26396
-0.0651448
1.23918
-0.0448695
1.2251
-0.0273156
1.21787
-0.0126223
1.21415
0.000936321
1.2113
0.021433
1.21493
0.050783
1.21615
0.0528127
1.211
0.0556295
1.20175
0.0568668
1.19061
0.0626294
1.17409
0.0748871
1.14237
0.0899077
1.06644
0.0862101
0.804939
0.0214182
0.244782
-0.03989
0.0679469
0.188366
0.0362869
7.37281e-012
-3.98348e-012
6.00396e-011
-4.78844e-011
5.40767e-010
-3.33468e-010
3.90966e-009
-2.68677e-009
2.96951e-008
-1.65064e-008
1.89602e-007
-1.09487e-007
1.21044e-006
-5.86568e-007
6.70569e-006
-3.16856e-006
3.56926e-005
-1.43722e-005
0.000168189
-6.22862e-005
0.000736245
-0.000228056
0.00287076
-0.000755353
0.0101428
-0.00239664
0.0303777
-0.00660856
0.0784237
-0.0147282
0.173698
-0.0240725
0.33491
-0.0400739
0.556573
-0.0486781
0.807908
-0.0431762
1.05189
-0.0254518
1.26562
-0.012112
1.44118
-0.00597914
1.58119
-0.000652961
1.69352
0.00467412
1.7754
0.00348284
1.82639
0.0129721
1.87756
0.0172388
1.91694
0.0136284
1.92588
0.0246777
1.91225
0.00334001
1.89842
0.0190715
1.9065
0.0159138
1.92698
-0.00282555
1.93398
-0.0129066
1.93182
-0.038024
1.92688
-0.0358937
1.91194
-0.0394407
1.84218
-0.0722355
1.65378
-0.0997598
1.48452
-0.107955
1.36801
-0.0947216
1.2948
-0.0769386
1.24975
-0.0734367
1.22464
-0.0512005
1.21101
-0.0322666
1.20347
-0.0156684
1.19738
0.000961129
1.19662
0.0195151
1.20043
0.0501373
1.20367
0.0537639
1.19979
0.0565807
1.18969
0.0583143
1.17681
0.066792
1.15881
0.0807881
1.12509
0.0970767
1.04488
0.100273
0.816662
0.0351104
0.278561
-0.140238
0.0819726
0.237699
0.0401095
6.96835e-012
-4.47464e-012
5.63416e-011
-4.97646e-011
5.0858e-010
-3.45826e-010
3.65355e-009
-2.79281e-009
2.77822e-008
-1.71101e-008
1.76501e-007
-1.1358e-007
1.12711e-006
-6.07517e-007
6.22126e-006
-3.28323e-006
3.3104e-005
-1.48831e-005
0.000155667
-6.45567e-005
0.000681251
-0.000236227
0.00265812
-0.000789474
0.00940562
-0.00245473
0.028216
-0.00689885
0.0729952
-0.0153021
0.162101
-0.0253524
0.313586
-0.0417636
0.522964
-0.0512629
0.761797
-0.0460106
0.995355
-0.027273
1.20191
-0.0131464
1.37238
-0.00606749
1.50883
-0.00168949
1.6194
0.006177
1.70073
0.00231303
1.75156
0.0148555
1.80303
0.0191929
1.84318
0.0153553
1.85309
0.0255796
1.84275
0.0044824
1.83005
0.017948
1.84104
0.0202524
1.86334
-0.00148324
1.87049
-0.0121817
1.86822
-0.0374278
1.86416
-0.0386184
1.8485
-0.0395232
1.77779
-0.0702606
1.59343
-0.0993655
1.42661
-0.109534
1.3103
-0.098811
1.23473
-0.0795924
1.18959
-0.077411
1.16581
-0.0553777
1.1527
-0.035182
1.1458
-0.0172471
1.1439
-0.00146861
1.13863
0.0221936
1.14079
0.0495276
1.14367
0.0549911
1.14064
0.0570073
1.13329
0.058263
1.12378
0.0658409
1.10954
0.0822498
1.08268
0.0948925
1.01672
0.0996852
0.822545
0.0380843
0.316224
-0.198502
0.0971228
0.272774
0.0477787
6.59798e-012
-4.71623e-012
5.30111e-011
-5.11422e-011
4.80334e-010
-3.5589e-010
3.43736e-009
-2.88307e-009
2.62284e-008
-1.76397e-008
1.66383e-007
-1.17296e-007
1.06599e-006
-6.27749e-007
5.88734e-006
-3.39994e-006
3.14308e-005
-1.54529e-005
0.000148117
-6.72728e-005
0.000650306
-0.000247217
0.00254422
-0.00083509
0.00902883
-0.00256563
0.0271926
-0.00735833
0.0705872
-0.0163307
0.157172
-0.0275053
0.304827
-0.0451785
0.509518
-0.0561708
0.743475
-0.0512172
0.972156
-0.0309825
1.17343
-0.0151047
1.3392
-0.00669014
1.47187
-0.00310019
1.57841
0.00815796
1.65697
0.00149306
1.70567
0.0162052
1.75451
0.02087
1.7929
0.0177784
1.80261
0.0270302
1.79053
0.0085575
1.77733
0.017409
1.7855
0.0241111
1.8063
0.00255373
1.81386
-0.00863014
1.81195
-0.035057
1.80814
-0.0405992
1.79396
-0.0396928
1.72874
-0.0696093
1.55231
-0.0994945
1.39278
-0.11208
1.28302
-0.105407
1.21229
-0.085662
1.16903
-0.0823376
1.1453
-0.0595064
1.1326
-0.0385115
1.1258
-0.0191146
1.11939
-3.21925e-005
1.11792
0.0177092
1.12
0.0453051
1.12361
0.054403
1.12095
0.0576879
1.11272
0.0594063
1.10253
0.0665552
1.08929
0.0829506
1.0577
0.0967357
0.989313
0.0994483
0.824324
0.0413801
0.429999
-0.190478
0.111918
0.268822
0.0613564
6.2408e-012
-5.41167e-012
4.97924e-011
-5.24798e-011
4.52582e-010
-3.6342e-010
3.21981e-009
-2.95027e-009
2.46174e-008
-1.80132e-008
1.55476e-007
-1.19873e-007
9.97052e-007
-6.41012e-007
5.48958e-006
-3.47383e-006
2.93126e-005
-1.57931e-005
0.000137895
-6.88273e-005
0.000605376
-0.000253055
0.00236966
-0.000861599
0.00842082
-0.0026039
0.0253983
-0.00760309
0.0660449
-0.0168012
0.147375
-0.0286729
0.286615
-0.0466567
0.480462
-0.0586309
0.703064
-0.0540084
0.92191
-0.0328865
1.11629
-0.0164952
1.27723
-0.00682245
1.40631
-0.00439602
1.51095
0.0101605
1.58901
-0.000339789
1.63721
0.0164042
1.68587
0.0209088
1.72488
0.0179506
1.73552
0.0265698
1.7264
0.00878795
1.7142
0.0146951
1.72346
0.0265704
1.74628
0.00539831
1.75492
-0.00727009
1.75349
-0.0340821
1.75013
-0.0432975
1.73688
-0.0411414
1.67265
-0.0700528
1.49875
-0.100987
1.33991
-0.112265
1.22966
-0.107157
1.15903
-0.08834
1.11659
-0.0827673
1.09359
-0.0607337
1.08044
-0.0393876
1.0739
-0.0200065
1.0731
-0.00324303
1.06968
0.0175522
1.068
0.0434299
1.07199
0.0539722
1.07141
0.0575072
1.06607
0.0581122
1.05864
0.0632048
1.04837
0.0798603
1.0232
0.0903637
0.966258
0.0914579
0.839693
0.0465326
0.55153
-0.134296
0.127107
0.232121
0.0820187
5.91021e-012
-5.77582e-012
4.68322e-011
-5.33111e-011
4.27467e-010
-3.69266e-010
3.02794e-009
-3.00377e-009
2.3232e-008
-1.83187e-008
1.46428e-007
-1.22063e-007
9.41974e-007
-6.53082e-007
5.18658e-006
-3.54499e-006
2.7779e-005
-1.6155e-005
0.000130904
-7.06062e-005
0.000576422
-0.000260589
0.00226212
-0.000895245
0.00805991
-0.00267792
0.0244069
-0.00796378
0.0636824
-0.0175934
0.142505
-0.0304824
0.277891
-0.0494445
0.467012
-0.062897
0.68479
-0.0587839
0.899027
-0.0365077
1.08849
-0.0185711
1.24494
-0.00732622
1.37058
-0.00635853
1.4714
0.0137689
1.54682
-0.000991527
1.59297
0.0172603
1.63905
0.0218237
1.67675
0.0195544
1.68764
0.0269339
1.67704
0.00989199
1.66404
0.0131988
1.67084
0.0277434
1.69233
0.00967159
1.70214
-0.00564854
1.70211
-0.0343544
1.69959
-0.0473552
1.68978
-0.0447202
1.63455
-0.0729446
1.47043
-0.102899
1.3154
-0.115843
1.20753
-0.112072
1.13769
-0.0928147
1.09751
-0.0848001
1.07522
-0.061524
1.06231
-0.0396788
1.05425
-0.0198646
1.04753
-0.000475667
1.04457
0.0152091
1.0441
0.0372287
1.04729
0.0523541
1.04665
0.0578168
1.04088
0.0585389
1.03312
0.0637085
1.02203
0.0792284
0.997431
0.0888487
0.951608
0.0916336
0.851464
0.062378
0.580274
-0.062727
0.142231
0.178431
0.108783
5.59394e-012
-5.89484e-012
4.40243e-011
-5.38591e-011
4.03383e-010
-3.72985e-010
2.84146e-009
-3.04064e-009
2.18587e-008
-1.85178e-008
1.37224e-007
-1.23471e-007
8.84086e-007
-6.60478e-007
4.85494e-006
-3.58712e-006
2.60188e-005
-1.63621e-005
0.000122436
-7.15874e-005
0.000539224
-0.000264577
0.00211708
-0.000915045
0.00755261
-0.00270332
0.022903
-0.00816681
0.0598504
-0.0179731
0.134176
-0.031525
0.262254
-0.0507329
0.441797
-0.0652147
0.649295
-0.0615145
0.854322
-0.0385309
1.03715
-0.0201015
1.18897
-0.00748286
1.31103
-0.00774816
1.40994
0.0135943
1.4848
-0.00305029
1.53043
0.0177985
1.57622
0.0226864
1.61411
0.0201369
1.62558
0.0266015
1.61776
0.0106611
1.60589
0.0113962
1.61296
0.0284923
1.63571
0.0122363
1.64685
-0.00530278
1.64724
-0.0360821
1.64534
-0.052948
1.63763
-0.0509917
1.58684
-0.0782787
1.43579
-0.109218
1.28
-0.118839
1.16922
-0.113624
1.0977
-0.0939154
1.0551
-0.0825622
1.03157
-0.0605357
1.01862
-0.0390695
1.01156
-0.0201664
1.01023
-0.00391914
1.0059
0.0149163
1.00156
0.0343761
1.00498
0.050778
1.00578
0.0572077
1.00185
0.0573513
0.995851
0.0642596
0.98707
0.0797628
0.970073
0.0898827
0.934743
0.0964303
0.851095
0.0821646
0.598888
0.001673
0.158703
0.118101
0.13984
5.30273e-012
-5.58131e-012
4.14172e-011
-5.46541e-011
3.81221e-010
-3.75863e-010
2.6728e-009
-3.06653e-009
2.06359e-008
-1.866e-008
1.2923e-007
-1.24529e-007
8.35107e-007
-6.66592e-007
4.58412e-006
-3.62446e-006
2.46359e-005
-1.65705e-005
0.000116079
-7.26587e-005
0.000512637
-0.00026952
0.00201744
-0.000939035
0.00721389
-0.00275205
0.0219625
-0.00844836
0.0575812
-0.0185772
0.129466
-0.0330277
0.253728
-0.053017
0.428562
-0.0689053
0.631286
-0.0658692
0.831913
-0.0420466
1.01016
-0.0222287
1.15776
-0.00799468
1.27663
-0.00933508
1.37198
0.0154632
1.44402
-0.00360467
1.48794
0.0190216
1.5316
0.0241878
1.56813
0.0219932
1.57957
0.0271104
1.57055
0.0136213
1.55827
0.0108244
1.56411
0.0280801
1.58579
0.0149296
1.59722
-0.00501843
1.59876
-0.0387973
1.59772
-0.0599804
1.59219
-0.0592002
1.55065
-0.0874823
1.41177
-0.113912
1.25967
-0.12464
1.1494
-0.119133
1.07841
-0.0974076
1.03653
-0.0810066
1.01356
-0.0614654
1.00056
-0.0390034
0.992124
-0.019006
0.983548
0.000351117
0.979753
0.0148129
0.978277
0.030393
0.980534
0.0510291
0.980326
0.0584805
0.975755
0.0585737
0.969268
0.0665702
0.960082
0.0809755
0.945555
0.0926246
0.91476
0.101915
0.839584
0.0961271
0.616023
0.0236623
0.175715
0.0551961
0.174663
5.02114e-012
-4.73754e-012
3.89647e-011
-5.49285e-011
3.60233e-010
-3.77078e-010
2.51199e-009
-3.08057e-009
1.94549e-008
-1.87289e-008
1.21382e-007
-1.25044e-007
7.85904e-007
-6.69559e-007
4.30402e-006
-3.64206e-006
2.31534e-005
-1.66749e-005
0.000108969
-7.31838e-005
0.000481446
-0.000272038
0.0018955
-0.000953081
0.00678572
-0.00276871
0.0206893
-0.00861469
0.0543202
-0.018879
0.122344
-0.0339359
0.24022
-0.0541769
0.406583
-0.071035
0.600025
-0.0685192
0.792082
-0.0441643
0.963972
-0.0237276
1.10708
-0.0081233
1.22248
-0.0110113
1.31595
0.0154983
1.38735
-0.00598593
1.43073
0.0203583
1.47411
0.0259785
1.51042
0.0233786
1.52207
0.0269175
1.51536
0.0150449
1.50449
0.0096924
1.51094
0.0275797
1.5333
0.0174692
1.54542
-0.00573196
1.54713
-0.0421696
1.54668
-0.0678376
1.54273
-0.069062
1.50498
-0.097146
1.37912
-0.122795
1.22825
-0.128731
1.11693
-0.121444
1.04361
-0.0994823
0.999744
-0.0777454
0.975685
-0.0609541
0.962789
-0.0388943
0.955302
-0.0190551
0.953241
-0.00229874
0.948078
0.0161783
0.942593
0.0328738
0.94528
0.052246
0.94576
0.0597056
0.941993
0.0592561
0.936402
0.0674294
0.928573
0.0791228
0.917139
0.0908998
0.892105
0.101603
0.82444
0.0993789
0.630152
0.031173
0.194272
-0.0070255
0.213836
4.76355e-012
-4.6203e-012
3.66786e-011
-5.48361e-011
3.40745e-010
-3.77515e-010
2.36445e-009
-3.08588e-009
1.83812e-008
-1.87533e-008
1.14367e-007
-1.25266e-007
7.42676e-007
-6.71352e-007
4.06417e-006
-3.65438e-006
2.19193e-005
-1.67706e-005
0.000103256
-7.37233e-005
0.000457342
-0.000275047
0.00180439
-0.000969394
0.00647246
-0.0028001
0.0198105
-0.00883223
0.0521746
-0.0193325
0.117867
-0.0351694
0.232009
-0.0560745
0.39373
-0.0741978
0.582456
-0.0724788
0.770278
-0.0475463
0.937907
-0.0258614
1.07705
-0.00884244
1.18938
-0.0124458
1.27955
0.0170189
1.34809
-0.00713785
1.39008
0.021691
1.43176
0.0275876
1.46665
0.0253114
1.4779
0.0271302
1.47021
0.0184459
1.45915
0.00953128
1.46527
0.0266057
1.48692
0.0206338
1.49883
-0.00413396
1.50126
-0.0448961
1.50144
-0.0753069
1.49962
-0.0789919
1.47023
-0.108924
1.35482
-0.129651
1.20588
-0.135039
1.09593
-0.124787
1.02233
-0.101033
0.979645
-0.078307
0.957091
-0.0621355
0.944346
-0.0386495
0.935334
-0.0169406
0.92615
0.00303118
0.921277
0.0182817
0.919499
0.0335749
0.92082
0.0558187
0.920257
0.0621727
0.915994
0.0609199
0.91009
0.0679952
0.902254
0.0769087
0.890331
0.0892187
0.866688
0.10091
0.807829
0.100464
0.63436
0.0335138
0.21355
-0.0924319
0.256588
4.51501e-012
-4.19575e-012
3.45358e-011
-5.47811e-011
3.22401e-010
-3.76927e-010
2.22521e-009
-3.08281e-009
1.73591e-008
-1.8727e-008
1.07624e-007
-1.25106e-007
7.00459e-007
-6.71017e-007
3.82514e-006
-3.6532e-006
2.06564e-005
-1.67963e-005
9.72167e-005
-7.38892e-005
0.00043088
-0.000276402
0.00170073
-0.000978611
0.00610712
-0.00281041
0.0187221
-0.008965
0.049375
-0.0195654
0.111723
-0.0359469
0.220266
-0.0571297
0.374477
-0.0761326
0.554835
-0.075045
0.734727
-0.0496987
0.896276
-0.0273978
1.03112
-0.00880895
1.14015
-0.0139635
1.22845
0.0182297
1.29634
-0.0091565
1.33765
0.0224186
1.37889
0.0288897
1.41337
0.0266439
1.42482
0.0264972
1.41902
0.019577
1.40929
0.00851181
1.41576
0.0257182
1.43764
0.0238514
1.45016
-0.00479405
1.45274
-0.0473276
1.45338
-0.0821457
1.45283
-0.0887326
1.42634
-0.119686
1.32191
-0.139798
1.17396
-0.139762
1.06421
-0.126372
0.991706
-0.101326
0.94665
-0.075786
0.923058
-0.0612959
0.910613
-0.0379537
0.9032
-0.0158656
0.899854
0.00308657
0.894317
0.0220974
0.888046
0.0389377
0.889685
0.0597418
0.889518
0.0643646
0.885859
0.062191
0.880526
0.0679087
0.873605
0.0752021
0.862849
0.0885059
0.839792
0.101601
0.786733
0.10377
0.633764
0.0380465
0.236596
-0.133687
0.293257
4.28479e-012
-4.46398e-012
3.25349e-011
-5.39391e-011
3.05285e-010
-3.75927e-010
2.09642e-009
-3.07298e-009
1.6418e-008
-1.8667e-008
1.01487e-007
-1.24712e-007
6.62451e-007
-6.69703e-007
3.61383e-006
-3.64711e-006
1.95618e-005
-1.68099e-005
9.21202e-005
-7.40311e-005
0.000409212
-0.000277969
0.00161817
-0.000988879
0.0058205
-0.00282961
0.01791
-0.00912883
0.0473699
-0.0198999
0.107496
-0.0369503
0.212447
-0.0587069
0.362127
-0.0788404
0.537845
-0.0786417
0.71363
-0.0529171
0.871202
-0.0295512
1.0023
-0.00941624
1.10837
-0.0156249
1.1936
0.0203263
1.25871
-0.010195
1.2988
0.0232134
1.3386
0.0299941
1.37178
0.0282648
1.3827
0.0262006
1.37608
0.0222129
1.36613
0.0083199
1.37261
0.0245527
1.39381
0.0272829
1.40586
-0.00186486
1.40876
-0.048373
1.40952
-0.0872568
1.40976
-0.097006
1.38735
-0.130226
1.28928
-0.148363
1.14508
-0.145349
1.03843
-0.128855
0.96785
-0.101817
0.924857
-0.0741427
0.903281
-0.0617353
0.890972
-0.0367899
0.881478
-0.0122
0.872501
0.00922919
0.867839
0.0259306
0.864539
0.0413439
0.864849
0.0641429
0.864111
0.0672124
0.860306
0.0640612
0.854766
0.0684747
0.847866
0.0753659
0.837265
0.0896904
0.813923
0.103076
0.762235
0.106618
0.632064
0.0470002
0.310995
-0.11283
0.302681
4.06793e-012
-4.53149e-012
3.06634e-011
-5.29159e-011
2.89211e-010
-3.73968e-010
1.9755e-009
-3.05706e-009
1.5529e-008
-1.8572e-008
9.56599e-008
-1.2405e-007
6.2596e-007
-6.6695e-007
3.40816e-006
-3.63174e-006
1.84758e-005
-1.67763e-005
8.69404e-005
-7.39172e-005
0.000386532
-0.000278411
0.00152919
-0.000994095
0.00550574
-0.00283478
0.0169709
-0.00922945
0.0449458
-0.0200769
0.102148
-0.0376077
0.202172
-0.0596443
0.345175
-0.0806085
0.513352
-0.081109
0.681838
-0.0550765
0.833629
-0.0311943
0.960642
-0.00954076
1.0636
-0.0170374
1.14691
0.0235302
1.21134
-0.0124833
1.25075
0.0232714
1.29001
0.030771
1.32258
0.0293085
1.33361
0.0253334
1.32851
0.0229988
1.31987
0.00753206
1.32662
0.0234703
1.34765
0.0311239
1.35984
-0.00401909
1.36227
-0.0491458
1.36301
-0.0912666
1.36357
-0.104591
1.34245
-0.139245
1.25135
-0.158059
1.11065
-0.150238
1.00536
-0.12988
0.93601
-0.101956
0.892903
-0.0707591
0.870998
-0.0601496
0.859516
-0.0349443
0.852869
-0.0102295
0.848206
0.0119481
0.842194
0.0313331
0.835783
0.0465278
0.836103
0.06747
0.835704
0.0698187
0.832472
0.0655708
0.827373
0.0688221
0.821141
0.0757453
0.811659
0.0898521
0.790005
0.101698
0.741884
0.105465
0.63819
0.0579895
0.408922
-0.0471335
0.291012
3.86404e-012
-4.63274e-012
2.89124e-011
-5.26512e-011
2.74171e-010
-3.7139e-010
1.86311e-009
-3.03597e-009
1.47042e-008
-1.84523e-008
9.02971e-008
-1.23206e-007
5.92584e-007
-6.6343e-007
3.22243e-006
-3.61221e-006
1.75082e-005
-1.67304e-005
8.24142e-005
-7.37637e-005
0.000367157
-0.000278906
0.00145484
-0.000999621
0.00524553
-0.00284499
0.0162262
-0.00934616
0.0430882
-0.0203222
0.0981924
-0.0384169
0.194793
-0.0609369
0.33341
-0.0829415
0.497045
-0.0843615
0.661527
-0.0581216
0.809575
-0.0333456
0.933033
-0.0097607
1.03323
-0.0188337
1.11363
0.0257333
1.17533
-0.013365
1.21363
0.0237382
1.2517
0.0316604
1.2831
0.0307418
1.29352
0.0249592
1.28776
0.0249887
1.27893
0.00715718
1.28575
0.022331
1.30569
0.0350934
1.31686
-0.00135419
1.31923
-0.0488695
1.31948
-0.0934492
1.31997
-0.110419
1.30107
-0.146962
1.21682
-0.167307
1.08067
-0.156416
0.978458
-0.132587
0.909464
-0.102825
0.868299
-0.0692432
0.848328
-0.0601508
0.837393
-0.0329362
0.828443
-0.00522745
0.821631
0.017203
0.816171
0.0359498
0.812377
0.0494102
0.811675
0.070658
0.810875
0.0727516
0.807634
0.0672309
0.802489
0.0693941
0.796433
0.0763078
0.787547
0.0886803
0.767688
0.0982025
0.727624
0.102269
0.645479
0.069081
0.429743
0.0189014
0.259303
3.67248e-012
-4.37161e-012
2.72755e-011
-5.25233e-011
2.60054e-010
-3.68258e-010
1.75783e-009
-3.01033e-009
1.3928e-008
-1.83095e-008
8.52384e-008
-1.22176e-007
5.60856e-007
-6.58944e-007
3.0443e-006
-3.58631e-006
1.65672e-005
-1.66528e-005
7.7935e-005
-7.3435e-005
0.000347549
-0.000278637
0.00137781
-0.00100154
0.00497212
-0.00284575
0.0154091
-0.00941512
0.0409727
-0.0204571
0.0935036
-0.0389652
0.185748
-0.0617453
0.318406
-0.0845647
0.475243
-0.0867115
0.633035
-0.0602897
0.775629
-0.0350761
0.895209
-0.0103619
0.992452
-0.0202779
1.07095
0.026841
1.13189
-0.0158843
1.16956
0.0239286
1.20696
0.0325942
1.23766
0.0317139
1.2483
0.0240797
1.24378
0.025543
1.23593
0.00638603
1.24216
0.0212372
1.26129
0.0394783
1.27305
-0.00386284
1.27483
-0.048181
1.27474
-0.0947626
1.27531
-0.115113
1.26005
-0.153064
1.18814
-0.178218
1.05384
-0.164326
0.950127
-0.135474
0.880433
-0.10443
0.838576
-0.0680881
0.817082
-0.0589749
0.806318
-0.0309318
0.801216
-0.00379996
0.79618
0.0209331
0.790543
0.0415631
0.78576
0.0534223
0.785403
0.0732654
0.784843
0.0750338
0.781904
0.0684808
0.777061
0.0697295
0.771518
0.0763951
0.763587
0.0862062
0.74771
0.0945753
0.716508
0.100134
0.646736
0.079639
0.448275
0.0549601
0.213786
3.49167e-012
-4.02522e-012
2.57439e-011
-5.21698e-011
2.46821e-010
-3.64972e-010
1.65969e-009
-2.98103e-009
1.32042e-008
-1.81494e-008
8.05497e-008
-1.21011e-007
5.3154e-007
-6.53892e-007
2.88116e-006
-3.55709e-006
1.57127e-005
-1.65644e-005
7.39245e-005
-7.3064e-005
0.000330276
-0.000278341
0.0013111
-0.00100335
0.0047372
-0.00284921
0.0147299
-0.00949059
0.0392625
-0.0206369
0.0898268
-0.0396095
0.178831
-0.0627884
0.307276
-0.0865839
0.459687
-0.0896395
0.613566
-0.0631688
0.752606
-0.0371985
0.868806
-0.010535
0.963412
-0.0218022
1.0392
0.0281413
1.09726
-0.0165879
1.13417
0.0245007
1.17059
0.0336099
1.20016
0.0329814
1.21046
0.023655
1.20553
0.0269456
1.19689
0.00654674
1.20145
0.0202493
1.21877
0.0435312
1.23116
-0.00217677
1.23533
-0.0467987
1.2359
-0.0946384
1.23709
-0.118178
1.22918
-0.157681
1.17181
-0.185623
1.03985
-0.176369
0.933784
-0.143304
0.860291
-0.106977
0.816192
-0.0692354
0.793628
-0.0595848
0.782548
-0.030005
0.774125
0.000561117
0.769597
0.023928
0.766314
0.0445295
0.762125
0.0570992
0.761669
0.0757687
0.761007
0.0771839
0.758096
0.0698892
0.7533
0.070473
0.747924
0.0765874
0.740417
0.0838732
0.728232
0.0929159
0.703018
0.10143
0.640763
0.0913982
0.460272
0.0868082
0.153638
3.32266e-012
-3.67706e-012
2.4313e-011
-5.19798e-011
2.34396e-010
-3.61348e-010
1.56781e-009
-2.94888e-009
1.25239e-008
-1.79737e-008
7.61413e-008
-1.19716e-007
5.0382e-007
-6.48205e-007
2.72605e-006
-3.52354e-006
1.48923e-005
-1.64549e-005
7.0025e-005
-7.25733e-005
0.000313199
-0.000277526
0.00124392
-0.00100258
0.00449808
-0.00284641
0.0140137
-0.00953099
0.0374031
-0.0207392
0.0856899
-0.0400584
0.17082
-0.0634739
0.293929
-0.0880709
0.440206
-0.0918633
0.587972
-0.0653465
0.721907
-0.0389602
0.834374
-0.011436
0.926509
-0.0228045
0.999734
0.0275521
1.05701
-0.0176226
1.09604
0.0247976
1.12762
0.0345537
1.15542
0.0335537
1.16939
0.022956
1.16776
0.0274312
1.15907
0.0069946
1.15711
0.0190261
1.17003
0.0458148
1.18606
-0.00201305
1.19301
-0.0437538
1.1947
-0.0927842
1.19505
-0.11872
1.19063
-0.159235
1.15352
-0.189106
1.04055
-0.189232
0.924196
-0.151348
0.84364
-0.109208
0.794352
-0.0715687
0.767122
-0.059731
0.75365
-0.0290169
0.748558
0.000143008