/*--------------------------------*- C++ -*----------------------------------*\
| =========                 |                                                 |
| \\      /  F ield         | OpenFOAM: The Open Source CFD Toolbox           |
|  \\    /   O peration     | Version:  5.x                                   |
|   \\  /    A nd           | Web:      www.OpenFOAM.org                      |
|    \\/     M anipulation  |                                                 |
\*---------------------------------------------------------------------------*/
/*   Windows 32 and 64 bit porting by blueCAPE: http://www.bluecape.com.pt   *\
|  Based on Windows porting (2.0.x v4) by Symscape: http://www.symscape.com   |
\*---------------------------------------------------------------------------*/
FoamFile
{
    version     2.0;
    format      ascii;
    class       volScalarField;
    location    "0.004";
    object      T;
}
// * * * * * * * * * * * * * * * * * * * * * * * * * * * * * * * * * * * * * //

dimensions      [0 0 0 1 0 0 0];

internalField   nonuniform List<scalar> 
10000
(
348.432
348.432
348.432
348.432
348.432
348.432
348.432
348.432
348.432
348.43
348.423
348.395
348.292
347.979
347.16
345.374
342.013
336.722
329.709
321.61
313.376
304.966
298.319
288.518
284.696
279
270.21
264.59
263.244
262.917
260.772
253.963
248.639
247.189
247.199
247.613
250.037
260.167
288.368
325.315
361.075
391.52
413.785
428.426
436.27
438.841
438.582
434.211
423.6
414.988
408.852
404.348
400.172
395.24
387.227
373.131
337.336
289.477
280.418
278.997
348.432
348.432
348.432
348.432
348.432
348.432
348.432
348.432
348.432
348.43
348.424
348.398
348.3
348.002
347.218
345.498
342.235
337.056
330.136
322.085
313.835
305.436
298.553
288.888
285.089
278.673
269.79
264.638
263.438
262.749
259.276
251.717
247.58
246.886
247.125
247.824
250.376
260.242
287.594
324.312
358.8
386.35
404.424
413.849
417.005
416.954
413.61
406.603
401.569
397.882
394.789
392.204
389.715
386.639
381.758
373.66
349.717
293.731
281.943
279.305
348.432
348.432
348.432
348.432
348.432
348.432
348.432
348.432
348.432
348.43
348.424
348.398
348.301
348.004
347.223
345.507
342.254
337.089
330.191
322.17
313.958
305.691
298.409
290.41
283.793
279.57
272.412
265.22
262.262
261.79
260.939
257.661
252.372
249.82
249.244
249.209
250.136
255.609
275.176
308.118
340.977
369.533
390.442
403.833
411.05
413.793
413.981
411.872
406.657
402.355
398.821
395.879
392.941
389.112
383.452
374.086
352.798
296.367
283.038
279.495
348.432
348.432
348.432
348.432
348.432
348.432
348.432
348.432
348.432
348.43
348.424
348.4
348.307
348.023
347.271
345.612
342.443
337.378
330.567
322.595
314.367
306.189
298.238
291.972
282.554
278.732
274.374
266.26
260.504
258.854
258.555
257.705
254.283
251.146
250.051
249.831
250.634
256.165
277.267
312.295
344.413
370.317
388.246
399.04
405.099
407.919
408.558
407.787
404.169
399.872
396.567
393.919
391.683
389.04
385.154
378.89
363.224
302.642
284.848
279.71
348.432
348.432
348.432
348.432
348.432
348.432
348.432
348.432
348.432
348.43
348.424
348.4
348.309
348.026
347.279
345.628
342.474
337.426
330.635
322.688
314.501
306.358
298.509
292.204
282.991
279.247
274.854
266.886
261.304
259.641
259.369
258.621
255.282
252.024
250.881
250.677
251.415
256.726
277.301
311.61
342.882
368.302
386.38
397.127
403.349
406.732
407.985
407.876
406.081
402.102
398.455
395.305
392.422
389.416
385.248
378.295
363.483
311.204
286.572
279.869
348.432
348.432
348.432
348.432
348.432
348.432
348.432
348.432
348.432
348.43
348.425
348.401
348.314
348.042
347.32
345.717
342.635
337.676
330.967
323.071
314.887
306.709
298.894
292.242
283.279
279.718
274.412
266.126
261.1
259.975
259.628
258.015
253.377
250.391
249.668
249.633
250.445
255.831
276.581
311.839
344.072
369.69
386.932
397.185
402.654
405.348
406.348
406.196
404.421
400.781
397.561
394.837
392.537
390.254
386.929
381.262
368.172
322.124
288.634
280.155
348.432
348.432
348.432
348.432
348.432
348.432
348.432
348.432
348.432
348.43
348.425
348.402
348.315
348.047
347.33
345.737
342.674
337.735
331.045
323.168
315.018
306.878
299.1
292.562
283.612
280.016
274.996
266.889
261.764
260.465
260.162
258.847
254.425
250.997
249.981
249.885
250.499
255.074
273.264
307.485
339.59
365.928
384.559
395.867
402.308
405.495
406.888
406.889
405.573
402.013
398.533
395.561
392.85
390.418
386.866
380.879
368.815
331.411
290.663
280.619
348.432
348.432
348.432
348.432
348.432
348.432
348.432
348.432
348.432
348.431
348.425
348.403
348.32
348.06
347.364
345.812
342.813
337.952
331.339
323.514
315.373
307.217
299.42
292.714
283.84
280.3
274.76
266.467
261.587
260.541
260.19
258.272
253.158
249.888
249.089
249.092
249.796
254.731
273.871
308.794
341.251
367.428
385.626
396.358
402.469
405.557
406.569
406.523
404.921
401.323
398.094
395.471
393.193
391.092
387.997
382.732
372.349
340.761
292.987
281.325
348.432
348.432
348.432
348.432
348.432
348.432
348.432
348.432
348.432
348.431
348.425
348.403
348.321
348.065
347.376
345.836
342.857
338.018
331.424
323.615
315.499
307.372
299.618
292.981
284.146
280.593
275.253
267.087
262.148
260.982
260.679
259.047
253.992
250.167
249.037
248.961
249.535
254.039
272.038
306.169
338.508
364.872
383.862
395.32
401.928
405.411
406.836
407.006
405.823
402.293
398.8
395.868
393.345
391.113
387.987
382.846
373.609
348.835
295.482
282.188
348.432
348.432
348.432
348.432
348.432
348.432
348.432
348.432
348.432
348.431
348.425
348.404
348.325
348.076
347.405
345.9
342.978
338.209
331.684
323.928
315.828
307.698
299.891
293.219
284.305
280.763
275.22
266.881
261.937
260.89
260.588
258.698
253.252
249.464
248.476
248.47
249.113
253.758
272.036
306.646
339.413
365.957
384.808
395.921
402.219
405.585
406.744
406.802
405.518
402.036
398.68
395.922
393.644
391.584
388.783
384.184
376.136
356.162
298.655
283.164
348.432
348.432
348.432
348.432
348.432
348.432
348.432
348.432
348.432
348.431
348.426
348.405
348.327
348.081
347.418
345.926
343.025
338.279
331.775
324.03
315.947
307.843
300.058
293.499
284.535
280.968
275.731
267.468
262.374
261.179
260.902
259.274
253.993
249.8
248.573
248.504
249.066
253.494
271.311
305.442
337.763
363.993
383.123
394.74
401.536
405.262
406.797
407.056
406.078
402.756
399.163
396.17
393.799
391.69
388.942
384.635
377.495
361.242
303.406
284.171
348.432
348.432
348.432
348.432
348.432
348.432
348.432
348.432
348.432
348.431
348.426
348.406
348.33
348.09
347.443
345.981
343.13
338.446
332.006
324.314
316.253
308.153
300.316
293.747
284.686
281.122
275.771
267.354
262.192
261.062
260.813
259.092
253.551
249.259
248.047
248.007
248.589
253.133
271.43
306.27
338.778
364.57
383.114
394.27
400.872
404.694
406.27
406.614
405.911
403.026
399.427
396.456
394.132
392.096
389.635
385.771
379.222
364.28
311.38
285.23
348.432
348.432
348.432
348.432
348.432
348.432
348.432
348.432
348.432
348.431
348.426
348.406
348.332
348.096
347.456
346.007
343.178
338.519
332.099
324.417
316.367
308.285
300.461
294.023
284.875
281.26
276.267
267.918
262.533
261.214
260.983
259.556
254.351
249.594
248.046
247.893
248.346
252.366
269.186
303.208
336.015
362.299
381.297
392.908
399.699
403.708
405.643
406.211
405.829
403.691
400.016
396.833
394.367
392.256
389.891
386.275
380.103
366.364
319.885
286.335
348.432
348.432
348.432
348.432
348.432
348.432
348.432
348.432
348.432
348.431
348.426
348.407
348.335
348.104
347.477
346.055
343.27
338.667
332.305
324.673
316.649
308.579
300.713
294.245
285.044
281.44
276.319
267.844
262.416
261.157
260.946
259.458
254.055
249.241
247.698
247.577
248.024
251.901
268.076
301.635
334.855
361.771
381.14
392.826
399.507
403.448
405.42
405.982
405.766
403.894
400.317
397.152
394.684
392.643
390.422
386.981
381.004
368.314
327.874
287.549
348.432
348.432
348.432
348.432
348.432
348.432
348.432
348.432
348.432
348.431
348.426
348.408
348.336
348.109
347.49
346.082
343.319
338.741
332.399
324.776
316.759
308.697
300.853
294.482
285.224
281.579
276.714
268.304
262.729
261.328
261.099
259.759
254.614
249.515
247.751
247.549
247.929
251.391
266.197
298.632
332.039
359.851
380.1
392.496
399.513
403.491
405.528
406.12
405.903
404.038
400.498
397.327
394.853
392.808
390.603
387.272
381.576
370.233
335.366
288.841
348.432
348.432
348.432
348.432
348.432
348.432
348.432
348.432
348.432
348.431
348.426
348.408
348.339
348.116
347.509
346.123
343.4
338.871
332.583
325.008
317.019
308.975
301.101
294.675
285.415
281.794
276.737
268.225
262.691
261.376
261.158
259.695
254.25
249.183
247.5
247.357
247.747
251.068
265.224
297.253
331.089
359.634
380.268
392.785
399.732
403.693
405.75
406.356
406.186
404.217
400.653
397.522
395.073
393.119
390.992
387.813
382.461
372.265
342.4
290.214
348.432
348.432
348.432
348.432
348.432
348.432
348.432
348.432
348.432
348.431
348.426
348.409
348.34
348.121
347.521
346.15
343.449
338.945
332.678
325.111
317.126
309.079
301.233
294.874
285.578
281.942
277.051
268.588
262.98
261.584
261.322
259.902
254.57
249.306
247.487
247.297
247.625
250.526
263.322
294.581
328.989
358.522
379.894
392.881
399.936
403.853
405.814
406.431
406.236
404.353
400.851
397.7
395.208
393.285
391.204
388.16
383.191
374.096
349.027
291.592
348.432
348.432
348.432
348.432
348.432
348.432
348.432
348.432
348.432
348.431
348.427
348.409
348.342
348.127
347.538
346.187
343.521
339.061
332.842
325.32
317.365
309.344
301.472
295.061
285.779
282.157
277.084
268.541
262.981
261.646
261.409
259.901
254.286
249.022
247.25
247.098
247.423
250.187
262.445
293.458
328.281
358.272
379.927
393.014
400.031
403.936
405.931
406.599
406.43
404.51
401.049
397.941
395.451
393.599
391.592
388.663
383.967
375.823
354.842
293.23
348.432
348.432
348.432
348.432
348.432
348.432
348.432
348.432
348.432
348.431
348.427
348.41
348.344
348.132
347.55
346.212
343.568
339.134
332.936
325.422
317.469
309.435
301.595
295.228
285.922
282.302
277.351
268.841
263.231
261.848
261.558
260.061
254.508
249.067
247.207
247.031
247.324
249.917
261.616
292.29
327.382
357.579
379.418
392.682
399.751
403.671
405.71
406.439
406.354
404.81
401.402
398.204
395.632
393.755
391.751
388.929
384.487
377.118
358.881
295.983
348.432
348.432
348.432
348.432
348.432
348.432
348.432
348.432
348.432
348.431
348.427
348.41
348.346
348.138
347.564
346.245
343.632
339.237
333.083
325.611
317.689
309.688
301.826
295.397
286.134
282.527
277.382
268.815
263.274
261.942
261.68
260.097
254.251
248.859
247.064
246.932
247.243
249.803
261.288
291.83
327.229
357.772
379.783
392.973
399.755
403.456
405.47
406.274
406.29
404.994
401.762
398.565
395.954
394.057
392.087
389.399
385.206
378.279
361.14
301.357
348.432
348.432
348.432
348.432
348.432
348.432
348.432
348.432
348.432
348.431
348.427
348.411
348.347
348.142
347.576
346.269
343.678
339.308
333.175
325.711
317.789
309.768
301.943
295.538
286.267
282.669
277.602
269.063
263.496
262.14
261.819
260.213
254.435
248.933
247.075
246.914
247.174
249.528
260.386
290.283
325.957
356.935
379.611
393.212
400.047
403.593
405.453
406.217
406.284
405.198
402.102
398.839
396.145
394.175
392.221
389.681
385.724
379.073
362.618
307.431
348.432
348.432
348.432
348.432
348.432
348.432
348.432
348.432
348.432
348.431
348.427
348.411
348.349
348.147
347.589
346.298
343.735
339.401
333.308
325.883
317.991
310.007
302.168
295.679
286.503
282.903
277.63
269.083
263.562
262.219
261.94
260.35
254.506
249.009
246.974
246.75
246.921
248.821
258.295
286.698
323.255
355.247
378.979
393.375
400.532
404.085
405.847
406.519
406.555
405.374
402.267
399.088
396.414
394.44
392.573
390.188
386.398
379.951
364.447
313.677
348.432
348.432
348.432
348.432
348.432
348.432
348.432
348.432
348.432
348.431
348.427
348.411
348.35
348.151
347.6
346.322
343.779
339.469
333.397
325.981
318.088
310.076
302.299
295.738
286.708
283.095
277.753
269.327
263.748
262.347
262.056
260.662
255.391
249.538
246.813
246.028
245.912
246.897
253.682
278.392
316.301
350.166
375.839
392.026
400.317
404.362
406.25
406.923
406.93
405.639
402.428
399.239
396.521
394.499
392.684
390.375
386.716
380.536
365.988
319.799
348.432
348.432
348.432
348.432
348.432
348.432
348.432
348.432
348.432
348.431
348.427
348.412
348.352
348.156
347.611
346.348
343.831
339.554
333.518
326.137
318.275
310.285
302.624
295.418
288.031
282.266
277.599
270.476
264.205
261.814
261.415
260.672
257.474
251.344
247.419
245.827
245.447
246.045
250.458
268.449
305.818
341.968
370.388
389.132
399.192
404.164
406.492
407.313
407.316
406.054
402.776
399.553
396.795
394.751
393.018
390.777
387.217
381.279
367.576
326.113
348.432
348.432
348.432
348.432
348.432
348.432
348.432
348.432
348.432
348.431
348.427
348.412
348.353
348.16
347.621
346.37
343.873
339.618
333.603
326.231
318.37
310.331
302.877
294.873
289.678
280.851
276.879
272.541
265.856
260.959
259.221
258.908
258.227
254.797
250.298
247.998
247.261
247.561
250.615
264.269
297.449
333.356
363.423
384.646
396.856
403.148
406.179
407.31
407.395
406.408
403.172
399.801
396.933
394.808
393.071
390.831
387.341
381.657
368.805
332.138
348.432
348.432
348.432
348.432
348.432
348.432
348.432
348.432
348.432
348.431
348.427
348.412
348.354
348.164
347.632
346.394
343.92
339.695
333.713
326.374
318.542
310.54
303.098
294.91
290.164
280.881
276.376
273.022
266.629
260.929
258.505
258.106
257.746
255.439
251.501
249.591
249.052
249.379
252.132
264.249
295.281
329.825
359.261
381.147
394.518
401.84
405.629
407.09
407.31
406.695
403.749
400.249
397.286
395.101
393.383
391.203
387.802
382.366
370.341
338.569
348.432
348.432
348.432
348.432
348.432
348.432
348.432
348.432
348.432
348.431
348.427
348.413
348.356
348.168
347.642
346.414
343.959
339.756
333.795
326.465
318.631
310.6
303.202
294.956
290.323
281.008
276.266
273.226
267.06
261.105
258.33
257.823
257.412
255.206
252.195
250.929
250.576
250.864
253.443
265.086
295.495
329.135
357.466
378.863
392.489
400.345
404.755
406.574
407.047
406.769
404.363
400.646
397.498
395.174
393.381
391.212
387.894
382.76
371.642
344.679
348.432
348.432
348.432
348.432
348.432
348.432
348.432
348.432
348.432
348.431
348.427
348.413
348.357
348.171
347.651
346.436
344.002
339.827
333.896
326.596
318.789
310.8
303.387
295.097
290.56
281.18
276.227
273.34
267.293
261.199
258.401
257.813
257.206
254.961
252.446
251.41
251.088
251.326
253.804
265.439
295.955
329.135
356.86
377.688
391.192
399.232
403.644
405.859
406.649
406.639
405.066
401.354
398.002
395.514
393.658
391.571
388.419
383.648
373.414
350.982
348.432
348.432
348.432
348.432
348.432
348.432
348.432
348.432
348.432
348.431
348.428
348.413
348.358
348.175
347.66
346.455
344.039
339.885
333.973
326.682
318.873
310.858
303.468
295.182
290.632
281.275
276.291
273.475
267.525
261.294
258.274
257.657
257.122
255.053
252.634
251.62
251.276
251.478
253.888
265.519
295.886
328.516
355.887
376.412
390.093
398.24
402.632
405.114
406.155
406.329
405.296
401.836
398.27
395.615
393.638
391.559
388.539
384.153
374.783
356.607
348.432
348.432
348.432
348.432
348.432
348.432
348.432
348.432
348.432
348.431
348.428
348.414
348.359
348.178
347.669
346.475
344.078
339.95
334.066
326.803
319.02
311.047
303.631
295.371
290.797
281.413
276.442
273.605
267.598
261.322
258.351
257.731
257.147
255.095
252.721
251.743
251.41
251.587
253.886
265.275
295.142
327.376
354.578
375.062
389.115
397.405
401.921
404.578
405.81
406.143
405.51
402.559
398.818
395.978
393.91
391.902
389.093
385.126
376.438
361.739
348.432
348.432
348.432
348.432
348.432
348.432
348.432
348.432
348.432
348.431
348.428
348.414
348.36
348.181
347.677
346.493
344.112
340.004
334.138
326.884
319.099
311.102
303.7
295.461
290.84
281.473
276.585
273.73
267.666
261.352
258.326
257.734
257.201
255.2
252.807
251.823
251.482
251.63
253.801
264.971
294.566
326.853
353.957
374.432
388.558
396.876
401.451
404.202
405.574
406.001
405.518
402.842
399.004
396.039
393.869
391.848
389.138
385.441
377.174
364.975
348.432
348.432
348.432
348.432
348.432
348.432
348.432
348.432
348.432
348.431
348.428
348.414
348.361
348.184
347.685
346.511
344.149
340.064
334.225
326.997
319.236
311.279
303.856
295.64
291.001
281.607
276.736
273.864
267.725
261.369
258.424
257.848
257.282
255.29
252.832
251.791
251.409
251.521
253.6
264.691
294.242
326.634
353.728
374.255
388.402
396.739
401.289
404.066
405.535
406.034
405.68
403.345
399.424
396.324
394.09
392.133
389.594
386.15
378.044
367.504
348.432
348.432
348.432
348.432
348.432
348.432
348.432
348.432
348.432
348.431
348.428
348.414
348.362
348.187
347.693
346.528
344.18
340.114
334.292
327.072
319.31
311.33
303.911
295.74
291.005
281.653
276.922
273.978
267.713
261.365
258.409
257.882
257.388
255.418
252.775
251.662
251.278
251.388
253.448
264.534
294.101
326.458
353.434
373.965
388.17
396.614
401.155
403.968
405.513
406.046
405.723
403.476
399.525
396.343
394.019
392.022
389.485
386.097
377.913
368.588
348.432
348.432
348.432
348.432
348.432
348.432
348.432
348.432
348.432
348.431
348.428
348.415
348.363
348.19
347.7
346.545
344.214
340.17
334.373
327.178
319.439
311.497
304.059
295.922
291.139
281.782
277.139
274.108
267.682
261.384
258.61
258.121
257.554
255.435
252.693
251.603
251.262
251.377
253.37
264.112
293.3
325.622
352.574
373.16
387.501
396.234
400.873
403.777
405.44
406.037
405.784
403.72
399.782
396.546
394.194
392.252
389.837
386.626
378.455
370.354
348.432
348.432
348.432
348.432
348.432
348.432
348.432
348.432
348.432
348.431
348.428
348.415
348.364
348.192
347.707
346.56
344.244
340.217
334.436
327.248
319.507
311.544
304.108
296.012
291.131
281.832
277.316
274.186
267.62
261.387
258.681
258.237
257.65
255.349
252.563
251.556
251.288
251.425
253.383
263.719
292.54
324.896
351.663
371.992
386.354
395.428
400.298
403.344
405.209
405.909
405.718
403.783
399.859
396.552
394.107
392.106
389.661
386.482
378.396
371.566
348.432
348.432
348.432
348.432
348.432
348.432
348.432
348.432
348.432
348.431
348.428
348.415
348.364
348.195
347.714
346.576
344.275
340.27
334.512
327.347
319.628
311.701
304.251
296.183
291.263
281.963
277.533
274.301
267.569
261.438
258.975
258.546
257.783
255.145
252.416
251.556
251.378
251.531
253.473
263.543
292.218
324.753
351.53
371.454
385.444
394.597
399.651
402.733
404.798
405.65
405.571
403.943
400.131
396.763
394.275
392.308
389.994
387.051
379.236
373.819
348.432
348.432
348.432
348.432
348.432
348.432
348.432
348.432
348.432
348.431
348.428
348.415
348.365
348.197
347.72
346.59
344.302
340.312
334.569
327.412
319.691
311.744
304.297
296.254
291.266
282.007
277.671
274.348
267.508
261.463
259.076
258.655
257.807
254.95
252.251
251.461
251.321
251.475
253.409
263.338
292.064
324.867
351.729
371.444
384.984
393.928
399.037
401.965
404.144
405.168
405.212
403.913
400.27
396.793
394.194
392.15
389.799
386.892
379.159
374.74
348.432
348.432
348.432
348.432
348.432
348.432
348.432
348.432
348.432
348.431
348.428
348.416
348.366
348.2
347.727
346.605
344.332
340.362
334.641
327.506
319.806
311.891
304.435
296.417
291.404
282.137
277.86
274.461
267.512
261.541
259.314
258.888
257.92
254.888
252.092
251.222
251.039
251.178
253.125
263.126
292.115
325.331
352.358
371.948
385.005
393.596
398.702
401.489
403.679
404.811
404.942
403.934
400.577
397.019
394.37
392.35
390.113
387.442
379.885
376.533
348.432
348.432
348.432
348.432
348.432
348.432
348.432
348.432
348.432
348.431
348.428
348.416
348.367
348.202
347.733
346.618
344.356
340.401
334.694
327.564
319.862
311.93
304.475
296.478
291.401
282.178
277.966
274.495
267.494
261.548
259.308
258.915
258.014
254.967
251.951
250.929
250.681
250.804
252.748
262.778
291.837
325.262
352.484
372.336
385.269
393.545
398.526
401.139
403.208
404.374
404.568
403.748
400.627
397.022
394.29
392.188
389.883
387.204
379.633
377.043
348.432
348.432
348.432
348.432
348.432
348.432
348.432
348.432
348.432
348.431
348.428
348.416
348.367
348.204
347.739
346.632
344.384
340.448
334.762
327.654
319.972
312.069
304.611
296.626
291.555
282.309
278.099
274.628
267.593
261.618
259.415
259.039
258.16
255.133
251.958
250.837
250.555
250.667
252.566
262.397
291.164
324.721
352.132
372.269
385.329
393.519
398.49
401.044
402.999
404.17
404.387
403.654
400.727
397.161
394.44
392.383
390.193
387.747
380.321
378.47
348.432
348.432
348.432
348.432
348.432
348.432
348.432
348.432
348.432
348.431
348.428
348.416
348.368
348.206
347.744
346.644
344.406
340.484
334.809
327.707
320.022
312.103
304.645
296.673
291.551
282.343
278.17
274.658
267.597
261.619
259.381
259.03
258.21
255.212
251.951
250.802
250.52
250.632
252.501
262.153
290.61
324.214
351.766
372.106
385.327
393.486
398.449
400.981
402.827
403.969
404.187
403.476
400.623
397.087
394.337
392.218
389.948
387.462
379.942
378.646
348.432
348.432
348.432
348.432
348.432
348.432
348.432
348.432
348.432
348.431
348.428
348.416
348.369
348.209
347.75
346.657
344.433
340.529
334.875
327.793
320.127
312.236
304.775
296.826
291.685
282.476
278.326
274.781
267.677
261.7
259.517
259.167
258.318
255.288
252.002
250.859
250.587
250.692
252.503
261.884
289.896
323.61
351.428
372.003
385.371
393.496
398.451
400.988
402.774
403.897
404.119
403.419
400.641
397.182
394.471
392.411
390.262
388.008
380.588
379.74
348.432
348.432
348.432
348.432
348.432
348.432
348.432
348.432
348.432
348.431
348.428
348.416
348.369
348.21
347.755
346.667
344.453
340.561
334.917
327.84
320.171
312.266
304.801
296.87
291.66
282.505
278.418
274.779
267.626
261.702
259.544
259.208
258.351
255.242
251.958
250.869
250.638
250.75
252.52
261.621
289.134
322.955
351.11
372.027
385.595
393.687
398.558
401.043
402.764
403.853
404.06
403.327
400.531
397.105
394.378
392.254
390.007
387.671
380.095
379.724
348.432
348.432
348.432
348.432
348.432
348.432
348.432
348.432
348.432
348.431
348.428
348.417
348.37
348.212
347.76
346.68
344.478
340.604
334.98
327.923
320.273
312.393
304.923
297.028
291.769
282.644
278.621
274.876
267.648
261.801
259.762
259.418
258.456
255.17
251.933
250.932
250.759
250.874
252.604
261.507
288.629
322.31
350.56
371.808
385.705
393.915
398.767
401.183
402.832
403.882
404.072
403.325
400.564
397.216
394.529
392.468
390.348
388.254
380.776
380.685
348.432
348.432
348.432
348.432
348.432
348.432
348.432
348.432
348.432
348.431
348.428
348.417
348.37
348.214
347.764
346.69
344.496
340.632
335.018
327.963
320.311
312.418
304.945
297.064
291.739
282.665
278.717
274.839
267.55
261.813
259.855
259.512
258.459
254.98
251.802
250.889
250.761
250.878
252.599
261.484
288.597
322.259
350.458
371.7
385.677
393.99
398.886
401.298
402.921
403.934
404.096
403.304
400.495
397.175
394.473
392.342
390.11
387.895
380.238
380.567
348.432
348.432
348.432
348.432
348.432
348.432
348.432
348.432
348.432
348.431
348.428
348.417
348.371
348.216
347.769
346.702
344.52
340.674
335.079
328.044
320.409
312.538
305.067
297.201
291.869
282.798
278.884
274.947
267.601
261.933
260.074
259.716
258.55
254.924
251.712
250.768
250.625
250.726
252.432
261.394
288.712
322.443
350.591
371.747
385.676
394.004
398.928
401.358
403.009
404.017
404.152
403.337
400.557
397.321
394.657
392.588
390.493
388.548
381.002
381.451
348.432
348.432
348.432
348.432
348.432
348.432
348.432
348.432
348.432
348.431
348.428
348.417
348.371
348.217
347.773
346.71
344.536
340.699
335.111
328.079
320.441
312.558
305.086
297.214
291.862
282.803
278.914
274.924
267.561
261.929
260.083
259.746
258.605
254.934
251.57
250.498
250.29
250.37
252.086
261.26
289.058
322.916
350.962
371.964
385.771
394.072
398.972
401.362
403.031
404.05
404.174
403.358
400.588
397.359
394.67
392.531
390.324
388.216
380.526
381.274
348.432
348.432
348.432
348.432
348.432
348.432
348.432
348.432
348.432
348.431
348.428
348.417
348.372
348.219
347.778
346.722
344.559
340.739
335.171
328.158
320.538
312.675
305.215
297.344
292.017
282.947
279.045
275.09
267.723
262.051
260.197
259.88
258.806
255.171
251.528
250.251
249.96
250.025
251.745
261.044
289.156
323.069
351.044
371.95
385.675
393.984
398.898
401.278
402.988
404.042
404.172
403.405
400.755
397.59
394.912
392.82
390.745
388.938
381.291
382.235
348.432
348.432
348.432
348.432
348.432
348.432
348.432
348.432
348.432
348.431
348.428
348.417
348.372
348.221
347.782
346.729
344.573
340.761
335.2
328.191
320.574
312.703
305.246
297.385
292.03
282.979
279.096
275.153
267.771
262.057
260.167
259.874
258.871
255.246
251.484
250.159
249.852
249.913
251.622
260.947
289.262
323.222
350.988
371.702
385.391
393.803
398.742
401.088
402.856
403.968
404.118
403.41
400.864
397.696
394.984
392.82
390.646
388.631
380.924
382.006
348.432
348.432
348.432
348.432
348.432
348.432
348.432
348.432
348.432
348.431
348.429
348.417
348.373
348.222
347.787
346.741
344.598
340.806
335.272
328.289
320.693
312.851
305.382
297.564
292.188
283.124
279.224
275.336
267.939
262.121
260.177
259.89
258.941
255.409
251.58
250.195
249.857
249.906
251.583
260.833
289.229
323.417
351.092
371.335
384.66
393.247
398.435
400.915
402.809
404.003
404.202
403.635
401.421
398.298
395.531
393.347
391.297
389.691
382.056
382.56
348.432
348.432
348.432
348.432
348.432
348.432
348.432
348.432
348.432
348.431
348.429
348.418
348.374
348.225
347.794
346.757
344.628
340.85
335.319
328.33
320.713
312.851
305.349
297.509
292.147
283.009
279.043
275.247
267.89
261.935
259.869
259.611
258.813
255.585
251.746
250.275
249.875
249.886
251.458
260.462
288.649
323.262
351.38
371.581
384.401
392.086
396.894
399.274
401.128
402.557
402.88
402.406
400.281
397.14
394.444
392.217
390.143
387.831
381.828
378.464
348.432
348.432
348.432
348.432
348.432
348.432
348.432
348.432
348.432
348.431
348.429
348.418
348.373
348.223
347.786
346.738
344.587
340.782
335.222
328.21
320.59
312.725
305.275
297.388
292.158
282.986
278.921
275.305
268.088
262.026
259.863
259.619
259.007
256.293
252.295
250.565
249.973
249.931
251.493
260.693
288.957
322.868
350.711
371.264
384.653
392.6
397.434
399.701
401.346
402.613
402.864
402.402
400.307
397.074
394.387
392.344
390.519
388.364
383.192
378.147
348.432
348.432
348.432
348.432
348.432
348.432
348.432
348.432
348.432
348.431
348.429
348.418
348.374
348.226
347.794
346.757
344.625
340.845
335.31
328.319
320.711
312.86
305.385
297.485
292.264
283.017
278.916
275.333
268.101
261.91
259.683
259.452
258.902
256.324
252.281
250.442
249.776
249.69
251.217
260.425
288.8
322.756
350.53
370.873
384.126
392.087
397.026
399.334
401.09
402.409
402.641
402.095
399.984
397.125
394.565
392.4
390.492
388.15
384.074
378.902
348.432
348.432
348.432
348.432
348.432
348.432
348.432
348.432
348.432
348.431
348.429
348.418
348.374
348.225
347.79
346.746
344.597
340.795
335.228
328.205
320.573
312.692
305.254
297.335
292.152
282.966
278.846
275.3
268.13
261.967
259.718
259.482
258.996
256.591
252.507
250.605
249.87
249.762
251.269
260.173
287.652
321.656
350.307
371.75
385.642
393.679
398.419
400.48
402.063
403.221
403.415
402.926
400.82
397.755
394.864
392.575
390.693
388.49
384.174
378.558
348.432
348.432
348.432
348.432
348.432
348.432
348.432
348.432
348.432
348.431
348.429
348.418
348.374
348.227
347.795
346.758
344.623
340.842
335.299
328.304
320.7
312.86
305.41
297.469
292.327
283.043
278.876
275.368
268.191
261.938
259.698
259.479
259.008
256.649
252.547
250.587
249.805
249.647
251.023
259.497
286.645
321.171
349.929
371.292
385.152
393.394
398.37
400.552
402.353
403.637
403.851
403.362
401.28
398.498
395.654
393.291
391.337
388.966
385.632
380.168
348.432
348.432
348.432
348.432
348.432
348.432
348.432
348.432
348.432
348.431
348.429
348.418
348.374
348.227
347.794
346.753
344.607
340.809
335.236
328.202
320.559
312.663
305.234
297.273
292.146
282.941
278.775
275.295
268.167
261.934
259.637
259.399
258.977
256.761
252.662
250.687
249.859
249.682
250.985
259.122
285.776
320.464
349.262
370.61
384.323
392.805
397.964
400.332
402.314
403.816
404.309
404.116
402.51
399.312
395.858
393.187
391.067
388.728
384.989
379.226
348.432
348.432
348.432
348.432
348.432
348.432
348.432
348.432
348.432
348.431
348.429
348.418
348.374
348.228
347.797
346.761
344.623
340.841
335.287
328.283
320.68
312.85
305.429
297.479
292.389
283.078
278.832
275.402
268.297
261.969
259.69
259.474
259.041
256.826
252.725
250.716
249.86
249.65
250.817
258.433
284.5
319.633
348.586
369.689
383.065
391.578
396.868
399.5
401.742
403.503
404.232
404.189
403.001
399.945
396.591
393.861
391.799
389.579
386.67
381.824
348.432
348.432
348.432
348.432
348.432
348.432
348.432
348.432
348.432
348.431
348.429
348.418
348.375
348.228
347.797
346.76
344.617
340.822
335.244
328.201
320.55
312.64
305.22
297.19
292.154
282.925
278.664
275.306
268.291
261.93
259.539
259.278
258.879
256.828
252.781
250.774
249.89
249.686
250.797
257.886
282.428
317.533
347.601
370.207
384.583
393.231
398.196
400.402
402.252
403.797
404.513
404.563
403.56
400.432
396.747
393.722
391.518
389.128
385.815
380.159
348.432
348.432
348.432
348.432
348.432
348.432
348.432
348.432
348.432
348.431
348.429
348.418
348.375
348.229
347.799
346.765
344.626
340.842
335.276
328.26
320.651
312.826
305.438
297.49
292.462
283.109
278.754
275.426
268.414
261.994
259.658
259.434
259.005
256.891
252.837
250.794
249.885
249.65
250.671
257.387
281.331
316.897
347.309
369.882
384.181
392.927
398.033
400.374
402.386
403.991
404.715
404.749
403.62
400.421
396.908
394.107
392.033
389.842
386.971
382.088
348.432
348.432
348.432
348.432
348.432
348.432
348.432
348.432
348.432
348.431
348.429
348.418
348.375
348.23
347.801
346.767
344.626
340.835
335.252
328.201
320.543
312.624
305.209
297.103
292.139
282.908
278.574
275.319
268.4
261.932
259.483
259.21
258.804
256.825
252.822
250.782
249.857
249.631
250.693
257.565
281.794
317.349
347.674
369.939
383.676
392.09
397.079
399.394
401.494
403.177
404.113
404.479
404.027
401.415
397.393
394.198
391.827
389.492
386.338
380.905
348.432
348.432
348.432
348.432
348.432
348.432
348.432
348.432
348.432
348.431
348.429
348.418
348.376
348.231
347.803
346.77
344.632
340.845
335.269
328.236
320.615
312.789
305.431
297.484
292.527
283.142
278.681
275.434
268.496
262.03
259.685
259.453
258.993
256.852
252.779
250.75
249.861
249.625
250.62
257.334
281.494
317.344
347.827
370.067
383.892
392.296
397.193
399.469
401.554
403.249
404.177
404.546
404.154
401.432
397.412
394.381
392.191