/*--------------------------------*- C++ -*----------------------------------*\
| =========                 |                                                 |
| \\      /  F ield         | OpenFOAM: The Open Source CFD Toolbox           |
|  \\    /   O peration     | Version:  5.x                                   |
|   \\  /    A nd           | Web:      www.OpenFOAM.org                      |
|    \\/     M anipulation  |                                                 |
\*---------------------------------------------------------------------------*/
/*   Windows 32 and 64 bit porting by blueCAPE: http://www.bluecape.com.pt   *\
|  Based on Windows porting (2.0.x v4) by Symscape: http://www.symscape.com   |
\*---------------------------------------------------------------------------*/
FoamFile
{
    version     2.0;
    format      ascii;
    class       volVectorField;
    location    "0.004";
    object      U;
}
// * * * * * * * * * * * * * * * * * * * * * * * * * * * * * * * * * * * * * //

dimensions      [0 1 -1 0 0 0 0];

internalField   nonuniform List<vector> 
10000
(
(9.02887e-011 -1.71842e-012 0)
(1.10956e-009 -3.43627e-013 4.3482e-021)
(9.19125e-009 4.38449e-011 4.46844e-021)
(8.30017e-008 7.81048e-010 -1.83681e-020)
(6.09846e-007 7.86241e-009 2.8314e-020)
(4.6097e-006 7.34862e-008 -1.02823e-027)
(2.94868e-005 5.48728e-007 -1.99344e-020)
(0.000186049 3.87991e-006 0)
(0.00101746 2.31729e-005 0)
(0.00530849 0.000128841 0)
(0.0243112 0.000617813 -4.44579e-020)
(0.102952 0.00269424 3.01837e-023)
(0.37932 0.00992933 4.69635e-020)
(1.22393 0.0322019 0)
(3.38474 0.088272 0)
(8.18316 0.207476 0)
(17.1681 0.421546 0)
(31.4825 0.738184 -5.01089e-020)
(50.6984 1.13501 1.04395e-019)
(73.0452 1.51539 -5.48023e-020)
(96.6445 1.88021 5.01163e-020)
(120.02 2.16605 -5.50268e-020)
(142.674 2.49575 0)
(164.273 2.73438 0)
(184.865 2.91276 0)
(203.929 3.22608 0)
(221.288 3.45749 0)
(237.044 3.60767 0)
(251.298 3.74121 -1.06744e-019)
(263.357 3.61068 1.15351e-019)
(272.592 3.62697 0)
(279.82 3.57211 0)
(285.71 3.32771 0)
(290.499 3.05142 0)
(294.368 2.66552 -1.20866e-019)
(297.966 2.21909 2.49409e-019)
(302.201 1.47162 -2.58595e-019)
(306.937 0.850144 1.38214e-019)
(311.688 0.400988 -1.57518e-019)
(316.359 0.213764 1.82411e-019)
(321.256 0.356959 -2.08515e-019)
(326.68 0.537359 2.31425e-019)
(331.924 1.10435 0)
(336.18 1.733 0)
(339.523 2.41146 -2.8002e-019)
(341.872 3.0552 2.89823e-019)
(342.899 3.46488 0)
(342.345 4.37323 0)
(340.402 5.24641 0)
(337.101 6.20404 3.03859e-019)
(332.48 7.30325 -3.10501e-019)
(327.073 8.6541 0)
(320.383 10.0275 0)
(310.062 12.1454 3.16546e-019)
(291.112 15.9476 -3.34364e-019)
(250.394 19.3149 0)
(155.536 12.6645 0)
(37.0182 9.11116 2.53679e-019)
(6.21847 1.48278 -1.53907e-020)
(0.91442 0.0701799 -2.73349e-019)
(8.80525e-011 5.28026e-013 2.18911e-021)
(1.07768e-009 -3.30895e-011 -2.24965e-021)
(8.80119e-009 -2.62876e-010 0)
(7.94081e-008 -2.43923e-009 0)
(5.76629e-007 -1.79435e-008 0)
(4.35954e-006 -1.36846e-007 0)
(2.76524e-005 -8.77068e-007 2.06272e-020)
(0.000174643 -5.52913e-006 -2.11976e-020)
(0.000950406 -3.01171e-005 -2.17836e-020)
(0.00496739 -0.000155311 2.23863e-020)
(0.02272 -0.000698302 0)
(0.0965667 -0.00286035 -4.72549e-020)
(0.357205 -0.010561 4.85954e-020)
(1.15928 -0.0333494 -4.96734e-020)
(3.22194 -0.0897645 5.13343e-020)
(7.83451 -0.20493 0)
(16.533 -0.413222 0)
(30.5059 -0.713278 0)
(49.4172 -1.0702 0)
(71.5775 -1.40486 0)
(95.1239 -1.72904 0)
(118.559 -2.00875 0)
(141.32 -2.27519 0)
(163.096 -2.56618 0)
(183.92 -2.67405 -5.29271e-020)
(203.205 -2.97339 5.75801e-020)
(220.848 -3.19143 -5.31763e-020)
(236.995 -3.35472 5.73855e-020)
(251.671 -3.41401 0)
(264.173 -3.40803 0)
(273.828 -3.33788 0)
(281.415 -3.1852 0)
(287.595 -3.263 1.17896e-019)
(292.463 -3.15868 -1.22702e-019)
(295.981 -3.01164 0)
(298.614 -2.74901 0)
(301.375 -2.64529 0)
(304.386 -2.45765 1.43096e-019)
(307.118 -2.15861 -1.62465e-019)
(309.301 -1.73332 0)
(311.071 -1.41707 -2.14401e-019)
(312.863 -1.62533 4.73193e-019)
(314.202 -1.87532 -2.54652e-019)
(314.377 -2.24992 0)
(313.742 -2.74191 -2.77113e-019)
(312.605 -3.29375 5.69542e-019)
(310.936 -3.84805 -5.80296e-019)
(308.71 -4.0022 2.94085e-019)
(305.889 -4.60803 0)
(302.508 -5.36386 0)
(298.407 -6.36912 0)
(294 -7.38328 0)
(289.151 -8.95812 0)
(282.407 -10.6254 0)
(270.339 -10.4846 -3.20728e-019)
(243.309 -8.54463 3.48627e-019)
(169.509 -11.0026 -2.57413e-019)
(55.5511 11.6724 3.71852e-019)
(10.2375 1.8625 0)
(1.62728 0.0607243 0)
(8.65621e-011 -5.65811e-012 2.2651e-021)
(1.06821e-009 -3.54505e-011 2.32774e-021)
(8.70114e-009 -2.12135e-010 -4.78422e-021)
(7.86593e-008 -1.37108e-009 0)
(5.70438e-007 -6.33843e-009 1.0105e-020)
(4.32043e-006 -2.54475e-008 -1.03844e-020)
(2.73933e-005 -1.62028e-008 0)
(0.000173272 6.66392e-007 0)
(0.000943148 7.70908e-006 0)
(0.00493583 5.80854e-005 0)
(0.022589 0.000341301 0)
(0.0960924 0.00173513 0)
(0.355698 0.00656676 -5.01821e-020)
(1.15537 0.0228907 5.16793e-020)
(3.21351 0.0657588 0)
(7.81829 0.165815 -5.32023e-020)
(16.5052 0.343391 2.38078e-021)
(30.4605 0.623685 1.10992e-019)
(49.344 0.979581 -5.81906e-020)
(71.45 1.32948 0)
(94.9079 1.66465 0)
(118.222 1.92015 0)
(140.805 2.27266 5.40762e-020)
(162.494 2.39023 -5.90686e-020)
(182.973 2.6719 0)
(202.118 2.93861 0)
(219.695 3.15232 0)
(235.524 3.2715 0)
(249.845 3.46298 0)
(262.221 3.20843 0)
(272.011 3.44852 0)
(279.677 3.24551 0)
(285.665 2.83966 0)
(290.059 2.51613 0)
(292.882 1.96005 1.30415e-019)
(294.663 1.36384 -1.34538e-019)
(296.462 0.513516 1.38483e-019)
(298.369 -0.14722 -1.45401e-019)
(299.841 -0.376131 1.6093e-019)
(300.773 -0.243113 -1.85014e-019)
(301.609 0.279086 0)
(303.082 0.858435 -2.34447e-019)
(304.903 1.35651 5.08758e-019)
(306.372 2.12167 -8.11938e-023)
(307.605 2.88861 -2.82864e-019)
(308.598 3.53905 -2.92136e-019)
(309.012 4.05332 3.01078e-019)
(308.486 4.84669 3.06717e-019)
(307.181 5.96234 -3.12504e-019)
(305.108 7.02904 0)
(302.106 7.81866 3.21428e-019)
(298.459 9.12209 -3.30862e-019)
(293.845 10.1641 0)
(286.881 12.1193 -3.35749e-019)
(274.457 14.318 3.52455e-019)
(247.648 12.9699 0)
(177.849 -2.4285 2.66654e-019)
(66.2194 17.0622 -3.9226e-019)
(12.7825 2.61685 0)
(2.12143 0.284093 0)
(8.43024e-011 -4.49337e-012 2.34362e-021)
(1.04083e-009 -5.75615e-011 2.40844e-021)
(8.38011e-009 -4.16847e-010 4.95008e-021)
(7.5786e-008 -3.58335e-009 -1.01739e-020)
(5.44083e-007 -2.44099e-008 0)
(4.12376e-006 -1.75579e-007 0)
(2.59494e-005 -1.05784e-006 0)
(0.000164297 -6.34619e-006 0)
(0.000890096 -3.29251e-005 0)
(0.0046646 -0.000162931 2.39654e-020)
(0.0213143 -0.000704861 -3.83843e-024)
(0.0909203 -0.00277486 -2.53108e-020)
(0.337632 -0.010245 0)
(1.10206 -0.0318369 -5.31913e-020)
(3.07781 -0.0848957 5.49571e-020)
(7.52452 -0.1893 0)
(15.9643 -0.381584 0)
(29.6195 -0.652892 0)
(48.224 -0.971329 -5.56855e-020)
(70.1505 -1.2701 6.08353e-020)
(93.5469 -1.54047 0)
(116.914 -1.79569 5.58051e-020)
(139.566 -2.02518 -6.11718e-020)
(161.484 -2.28158 0)
(182.033 -2.40092 0)
(201.429 -2.62562 0)
(219.452 -2.80951 -5.78881e-020)
(235.582 -3.01368 3.87046e-021)
(249.999 -3.04441 6.18907e-020)
(262.646 -3.08911 0)
(272.933 -2.91764 0)
(281.189 -2.72387 -6.36447e-020)
(287.667 -2.92001 6.61257e-020)
(292.176 -2.76819 0)
(294.634 -2.64389 0)
(295.533 -2.45787 0)
(296.055 -2.65748 0)
(296.543 -2.82984 0)
(296.45 -2.74967 0)
(295.553 -2.5262 0)
(294.368 -2.1201 0)
(293.901 -1.93072 0)
(294.12 -2.3459 2.61799e-019)
(294.469 -2.57363 -2.7652e-019)
(295.127 -2.84955 0)
(296.142 -3.18619 0)
(297.213 -3.40648 0)
(297.712 -3.427 -3.14219e-019)
(297.359 -3.58634 3.21503e-019)
(296.126 -4.17826 0)
(293.961 -5.15624 0)
(291.206 -5.94408 0)
(288.027 -6.97522 0)
(283.411 -7.13553 0)
(274.588 -6.19481 0)
(254.361 -5.49318 3.36015e-019)
(196.692 -11.2027 -3.90605e-019)
(86.0803 19.1261 -2.82318e-019)
(17.4937 3.33235 3.26572e-019)
(3.04199 0.850379 -3.00964e-019)
(8.24995e-011 -7.91324e-012 0)
(1.02529e-009 -6.02072e-011 4.98367e-021)
(8.21559e-009 -4.03591e-010 -6.14825e-031)
(7.45379e-008 -3.04426e-009 -1.57894e-020)
(5.33719e-007 -1.74838e-008 1.08173e-020)
(4.05698e-006 -1.04695e-007 0)
(2.55025e-005 -4.76535e-007 -2.28478e-020)
(0.000161874 -2.01346e-006 2.34796e-020)
(0.000877084 -5.50024e-006 0)
(0.00460637 -4.06635e-006 0)
(0.021067 9.07359e-005 0)
(0.0900051 0.000821884 -2.6172e-020)
(0.334638 0.00340972 5.37758e-020)
(1.09399 0.0138784 -2.7661e-020)
(3.05954 0.0435785 -5.61727e-020)
(7.48815 0.123656 5.8419e-020)
(15.9015 0.263399 0)
(29.5242 0.504865 0)
(48.0952 0.830718 5.76246e-020)
(69.9724 1.16758 -6.29604e-020)
(93.2922 1.46882 0)
(116.544 1.7099 0)
(139.061 2.02383 0)
(160.831 2.17045 5.83387e-020)
(181.189 2.38804 -6.3199e-020)
(200.381 2.63534 -5.91591e-020)
(218.205 2.87983 6.44485e-020)
(234.133 2.97905 0)
(248.397 3.11475 -6.06809e-020)
(260.866 2.86842 6.53262e-020)
(271.017 3.05503 0)
(279.085 2.779 0)
(285.359 2.49955 0)
(289.797 2.188 -6.85094e-020)
(292.269 1.7054 7.07347e-020)
(293.204 1.24341 0)
(293.786 0.477983 0)
(294.329 -0.213079 0)
(294.242 -0.645345 0)
(293.246 -0.719199 2.00548e-019)
(291.853 -0.277483 -4.53342e-019)
(291.129 0.562574 2.49685e-019)
(291.207 1.09445 2.69552e-019)
(291.597 1.90831 -2.84713e-019)
(292.419 2.66056 0)
(293.755 3.34303 0)
(295.212 3.89436 0)
(296.179 4.67242 0)
(296.468 5.77315 3.32434e-019)
(295.929 6.57483 -3.4016e-019)
(294.4 7.29261 0)
(292.028 8.23281 3.50139e-019)
(288.779 9.15135 -3.61126e-019)
(283.929 9.98148 -3.61648e-019)
(275.044 10.439 1.43042e-020)
(255.641 7.82045 3.85916e-019)
(205.098 -3.27429 -2.96526e-019)
(102.17 16.8535 4.33795e-019)
(22.4387 4.52977 2.98394e-019)
(4.06535 1.63175 -6.35584e-019)
(8.02361e-011 -6.75954e-012 0)
(1.00068e-009 -7.5715e-011 0)
(7.93955e-009 -5.31524e-010 0)
(7.21592e-008 -4.45422e-009 0)
(5.12156e-007 -2.91676e-008 0)
(3.89884e-006 -2.03958e-007 0)
(2.43438e-005 -1.18331e-006 2.36381e-020)
(0.000154715 -6.88963e-006 -2.42918e-020)
(0.000834636 -3.4538e-005 0)
(0.00438902 -0.000165986 0)
(0.0200398 -0.000696204 -2.63596e-020)
(0.0857958 -0.00266177 2.70931e-020)
(0.319826 -0.00975502 0)
(1.04989 -0.02998 0)
(2.94623 -0.079246 0)
(7.24014 -0.172813 0)
(15.4401 -0.349002 0)
(28.7988 -0.592279 0)
(47.1148 -0.873922 0)
(68.8173 -1.14338 0)
(92.0691 -1.37924 0)
(115.361 -1.5984 -5.98427e-020)
(137.96 -1.81792 6.56168e-020)
(159.83 -2.02072 0)
(180.415 -2.13936 0)
(199.846 -2.32642 0)
(217.845 -2.48944 6.19658e-020)
(234.012 -2.65976 -6.61492e-020)
(248.574 -2.60661 0)
(261.466 -2.7486 0)
(271.923 -2.49915 0)
(280.202 -2.58879 0)
(286.708 -2.53721 0)
(291.285 -2.37333 0)
(293.834 -2.23712 0)
(294.721 -2.01242 0)
(295.134 -2.1371 0)
(295.542 -2.31057 0)
(295.353 -2.49276 0)
(294.164 -2.5837 0)
(292.32 -2.4739 0)
(290.87 -2.3454 0)
(290.104 -2.76236 -2.79291e-019)
(289.622 -2.96183 2.94613e-019)
(289.63 -3.16259 0)
(290.333 -3.30033 0)
(291.51 -3.18625 0)
(292.558 -2.95964 0)
(293.025 -2.85542 0)
(292.712 -3.37107 3.4875e-019)
(291.545 -3.89829 -3.577e-019)
(289.726 -4.36765 0)
(287.44 -4.72508 0)
(283.957 -4.15457 0)
(277.007 -2.91096 0)
(261.368 -2.0752 0)
(219.055 -4.46689 0)
(122.009 11.2994 0)
(29.8222 6.82528 0)
(5.46299 2.44374 0)
(7.80845e-011 -8.95495e-012 0)
(9.82482e-010 -7.82175e-011 0)
(7.74525e-009 -5.4089e-010 0)
(7.06809e-008 -4.25105e-009 0)
(4.99781e-007 -2.55056e-008 0)
(3.81836e-006 -1.62698e-007 0)
(2.37994e-005 -8.17599e-007 0)
(0.000151724 -4.03907e-006 0)
(0.000818357 -1.56998e-005 0)
(0.00431495 -5.33133e-005 0)
(0.0197201 -0.000112932 0)
(0.0845996 3.93139e-005 0)
(0.315843 0.000800245 0)
(1.03897 0.00595545 0)
(2.92091 0.0239145 0)
(7.1891 0.0839095 0)
(15.3513 0.189696 0)
(28.6654 0.391607 0)
(46.9429 0.68467 0)
(68.6018 1.01289 0)
(91.7886 1.29606 0)
(114.974 1.51776 0)
(137.456 1.79489 0)
(159.206 1.95632 0)
(179.594 2.14366 0)
(198.829 2.39185 0)
(216.674 2.6196 0)
(232.679 2.68562 0)
(247.088 2.83972 0)
(259.768 2.55096 0)
(270.089 2.67972 0)
(278.215 2.57698 0)
(284.569 2.26385 0)
(289.199 1.9287 0)
(292.011 1.42676 -7.48943e-020)
(293.317 1.20545 7.73284e-020)
(294.297 0.742148 0)
(295.392 0.134019 0)
(295.957 -0.401559 0)
(295.542 -0.655214 0)
(294.352 -0.388983 1.20255e-019)
(293.318 0.192132 -1.32778e-019)
(292.801 0.56402 0)
(292.427 1.37815 0)
(292.316 2.16875 0)
(292.764 2.87804 0)
(293.539 3.42799 -1.69045e-019)
(294.093 4.05936 1.74323e-019)
(294.202 5.20462 0)
(293.74 5.75802 0)
(292.504 6.39454 0)
(290.48 6.98017 0)
(287.815 7.54026 0)
(284.093 7.6904 0)
(277.287 7.66977 0)
(262.748 6.31078 0)
(226.283 0.845924 0)
(137.73 6.19492 0)
(38.3772 9.98815 0)
(7.03654 2.96699 0)
(7.59947e-011 -8.49465e-012 -2.68491e-021)
(9.59702e-010 -8.73734e-011 8.27749e-021)
(7.49926e-009 -6.17727e-010 -5.67093e-021)
(6.86432e-008 -5.11865e-009 0)
(4.81547e-007 -3.27409e-008 0)
(3.68759e-006 -2.25558e-007 0)
(2.28459e-005 -1.27677e-006 0)
(0.000145895 -7.29236e-006 -2.59985e-020)
(0.000783789 -3.56522e-005 2.67175e-020)
(0.00413836 -0.000167671 2.74555e-020)
(0.0188825 -0.000684974 -2.82158e-020)
(0.0811434 -0.00256684 -2.89812e-020)
(0.303601 -0.00921583 2.98003e-020)
(1.00224 -0.0282647 0)
(2.82584 -0.0738097 3.11232e-020)
(6.97889 -0.157989 -3.23439e-020)
(14.9563 -0.318106 0)
(28.0384 -0.535526 0)
(46.0836 -0.783327 -6.39994e-020)
(67.573 -1.02176 5.81256e-021)
(90.6846 -1.24014 7.0162e-020)
(113.902 -1.4207 0)
(136.448 -1.62163 0)
(158.288 -1.77489 6.47198e-020)
(178.884 -1.91249 -7.01826e-020)
(198.333 -2.04071 0)
(216.344 -2.16614 0)
(232.565 -2.29338 0)
(247.204 -2.20917 0)
(260.237 -2.41911 0)
(270.826 -2.09109 0)
(279.14 -2.30181 0)
(285.737 -2.23045 -7.38161e-020)
(290.547 -2.09276 7.62724e-020)
(293.52 -2.0755 -7.71861e-020)
(294.931 -1.84358 1.59249e-019)
(295.885 -1.8028 -8.20151e-020)
(296.945 -2.07273 0)
(297.534 -2.40476 -9.49192e-020)
(297.152 -2.65561 2.19915e-019)
(295.894 -2.66977 -1.24753e-019)
(294.609 -2.66269 0)
(293.743 -3.02969 1.4894e-019)
(292.95 -3.05959 -3.14604e-019)
(292.354 -3.14089 1.64157e-019)
(292.328 -3.2013 -1.69836e-019)
(292.856 -3.09348 1.75206e-019)
(293.462 -2.57994 0)
(293.558 -2.07808 0)
(293.007 -2.39085 0)
(291.822 -2.60856 -1.90394e-019)
(290.05 -2.75593 1.95721e-019)
(287.857 -2.56846 -1.9833e-019)
(284.804 -1.72698 2.04573e-019)
(279.092 -0.279989 0)
(266.835 1.05466 0)
(235.845 -0.0295407 0)
(154.497 0.988491 0)
(48.9151 13.7131 0)
(8.92368 3.2467 0)
(7.38391e-011 -7.09074e-012 -2.77749e-021)
(9.40779e-010 -9.10648e-011 -2.8543e-021)
(7.29583e-009 -6.34808e-010 5.86647e-021)
(6.71022e-008 -5.08698e-009 0)
(4.68546e-007 -3.10205e-008 0)
(3.60266e-006 -2.03185e-007 0)
(2.22654e-005 -1.05813e-006 0)
(0.000142677 -5.49559e-006 -1.34475e-020)
(0.000766056 -2.31966e-005 4.1458e-020)
(0.00405663 -9.04534e-005 -9.37388e-025)
(0.0185246 -0.000270418 -3.99632e-024)
(0.0797925 -0.000598413 -5.99772e-020)
(0.299033 -0.00122386 5.26858e-023)
(0.989555 -0.000738189 1.50924e-022)
(2.79587 0.00725201 3.25651e-020)
(6.91785 0.0481225 -3.26966e-020)
(14.8491 0.124464 3.43403e-020)
(27.8771 0.287399 -3.30974e-020)
(45.8789 0.546512 3.57472e-020)
(67.3292 0.863044 0)
(90.388 1.14354 0)
(113.51 1.3438 0)
(135.954 1.58201 0)
(157.688 1.76632 -6.70078e-020)
(178.097 1.91396 7.26842e-020)
(197.367 2.15702 0)
(215.245 2.36345 0)
(231.331 2.42036 0)
(245.848 2.56955 6.96936e-020)
(258.705 2.33328 -1.4684e-019)
(269.176 2.39895 3.10311e-021)
(277.37 2.44313 7.81573e-020)
(283.815 1.99961 0)
(288.61 1.69002 0)
(291.738 1.16424 7.98243e-020)
(293.412 0.985366 -8.24707e-020)
(294.698 0.740751 -8.47006e-020)
(296.16 0.129459 8.86041e-020)
(297.22 -0.467287 0)
(297.341 -0.836312 1.12825e-019)
(296.542 -0.727935 -1.28017e-019)
(295.607 -0.356914 0)
(295.062 -0.0952512 0)
(294.563 0.749138 1.62265e-019)
(294.115 1.58541 -1.69581e-019)
(294.118 2.35807 0)
(294.491 3.01513 0)
(294.729 3.51334 0)
(294.502 4.64377 1.9042e-019)
(293.792 5.05272 -1.94763e-019)
(292.478 5.42727 0)
(290.46 5.65729 0)
(287.999 5.845 -2.05238e-019)
(284.909 5.93934 2.11587e-019)
(279.5 6.1423 0)
(268.231 5.8123 -2.09069e-019)
(241.231 2.48552 3.36789e-020)
(168.446 -3.40124 4.07689e-019)
(60.5649 17.5275 -2.41907e-019)
(11.0554 3.44998 1.79829e-019)
(7.18214e-011 -8.41896e-012 0)
(9.1956e-010 -9.60927e-011 0)
(7.07186e-009 -6.79211e-010 0)
(6.53115e-008 -5.60858e-009 0)
(4.52701e-007 -3.53613e-008 -1.28177e-020)
(3.49169e-006 -2.41736e-007 1.31721e-020)
(2.14608e-005 -1.34674e-006 0)
(0.000137826 -7.59852e-006 0)
(0.000737337 -3.6502e-005 0)
(0.00391076 -0.000168987 0)
(0.0178315 -0.000675577 0)
(0.0769231 -0.00250065 0)
(0.288807 -0.00869451 0)
(0.958698 -0.0268843 0)
(2.71551 -0.0690731 0)
(6.73867 -0.145519 0)
(14.5095 -0.290432 0)
(27.3332 -0.48485 0)
(45.1243 -0.701423 0)
(66.4123 -0.908629 0)
(89.3885 -1.11149 0)
(112.533 -1.25849 0)
(135.029 -1.43791 0)
(156.843 -1.55382 0)
(177.438 -1.70737 0)
(196.904 -1.7713 0)
(214.937 -1.87216 0)
(231.209 -1.98367 0)
(245.912 -1.88627 0)
(259.065 -2.12084 0)
(269.797 -1.78838 0)
(278.14 -1.89871 0)
(284.775 -1.94664 0)
(289.708 -1.8483 8.02501e-020)
(292.897 -1.91728 -1.65482e-019)
(294.549 -1.75629 8.51662e-020)
(295.662 -1.65278 8.74703e-020)
(296.913 -1.94834 -9.15559e-020)
(297.813 -2.32782 0)
(297.805 -2.66908 0)
(296.844 -2.75486 0)
(295.667 -2.7365 0)
(294.884 -3.07799 0)
(294.178 -3.00982 0)
(293.519 -3.00095 0)
(293.335 -2.97178 0)
(293.707 -2.8262 1.87188e-019)
(294.279 -2.14742 -1.92851e-019)
(294.274 -1.37934 1.96919e-019)
(293.557 -1.43927 -2.01287e-019)
(292.316 -1.46807 0)
(290.511 -1.40513 0)
(288.332 -0.867853 0)
(285.582 0.195739 0)
(280.841 1.52758 0)
(270.99 2.68088 -2.1832e-019)
(247.465 1.34735 2.35725e-019)
(182.364 -6.72507 0)
(73.6663 20.8691 0)
(13.614 3.92873 0)
(6.94768e-011 -8.9456e-012 0)
(9.00866e-010 -9.90659e-011 0)
(6.87142e-009 -6.95103e-010 0)
(6.38022e-008 -5.6444e-009 0)
(4.39879e-007 -3.46571e-008 1.32588e-020)
(3.40786e-006 -2.30294e-007 -1.36254e-020)
(2.08824e-005 -1.22091e-006 0)
(0.000134599 -6.50085e-006 0)
(0.000719357 -2.85031e-005 1.47873e-020)
(0.00382703 -0.000117447 -1.51963e-020)
(0.0174601 -0.000388174 -3.12292e-020)
(0.0755092 -0.00109952 6.41791e-020)
(0.28396 -0.00275364 -3.29871e-020)
(0.945074 -0.00624011 0)
(2.68284 -0.00652612 0)
(6.67141 0.0170489 0)
(14.3902 0.0677895 -3.53304e-020)
(27.1527 0.194015 7.30654e-020)
(44.8958 0.419104 -3.82718e-020)
(66.1472 0.720961 0)
(89.0828 1.00008 0)
(112.143 1.1845 0)
(134.549 1.3877 0)
(156.274 1.6021 0)
(176.686 1.69571 0)
(195.989 1.95851 0)
(213.918 2.15003 0)
(230.083 2.20287 -7.37746e-020)
(244.678 2.33046 7.90997e-020)
(257.69 2.14625 0)
(268.344 2.11951 0)
(276.66 2.22912 0)
(283.227 1.84083 0)
(288.159 1.49116 0)
(291.477 0.986077 0)
(293.315 0.73725 0)
(294.619 0.571718 0)
(296.083 -0.0115732 0)
(297.234 -0.670069 -1.04079e-019)
(297.484 -1.15117 1.20335e-019)
(296.721 -1.18721 0)
(295.64 -0.820655 0)
(294.962 -0.629452 1.63773e-019)
(294.423 0.198881 -1.73403e-019)
(293.904 1.05131 0)
(293.832 1.88508 1.87837e-019)
(294.204 2.61966 -1.94036e-019)
(294.54 3.15146 0)
(294.347 3.94448 0)
(293.647 4.30288 0)
(292.431 4.46856 0)
(290.567 4.51549 -2.15448e-019)
(288.341 4.54956 2.21669e-019)
(285.683 4.79943 2.24076e-019)
(281.246 5.14335 -4.9008e-021)
(272.166 5.12261 -2.37378e-019)
(251.22 2.45897 2.18269e-019)
(194.029 -7.36147 -2.52819e-019)
(87.7147 21.7311 1.82415e-019)
(16.6703 4.80328 -4.08431e-019)
(6.75809e-011 -9.46442e-012 0)
(8.81223e-010 -1.01582e-010 3.15924e-021)
(6.6656e-009 -7.19629e-010 -3.24661e-021)
(6.22036e-008 -5.95102e-009 0)
(4.25847e-007 -3.71817e-008 0)
(3.31172e-006 -2.53218e-007 0)
(2.01889e-005 -1.39695e-006 0)
(0.000130478 -7.82225e-006 0)
(0.000695031 -3.71501e-005 1.52957e-020)
(0.00370444 -0.000170103 -1.57188e-020)
(0.0168774 -0.000668956 0)
(0.0730973 -0.00245986 0)
(0.275312 -0.00823624 3.40668e-020)
(0.918881 -0.0258702 -3.50687e-020)
(2.61433 -0.065189 -3.56607e-020)
(6.51763 -0.135533 8.056e-022)
(14.0967 -0.266679 3.80138e-020)
(26.6788 -0.440993 0)
(44.2317 -0.629003 3.67416e-020)
(65.3295 -0.805445 -4.00441e-020)
(88.1759 -0.989437 0)
(111.248 -1.11276 3.68512e-020)
(133.697 -1.2778 -7.73322e-020)
(155.489 -1.35679 4.05306e-020)
(176.073 -1.52302 -3.71082e-020)
(195.554 -1.52216 4.07924e-020)
(213.616 -1.59875 -7.62886e-020)
(229.935 -1.69059 5.20377e-021)
(244.688 -1.60787 8.1787e-020)
(257.949 -1.80782 0)
(268.852 -1.55575 0)
(277.29 -1.48783 0)
(284.007 -1.6744 -8.45679e-020)
(289.091 -1.56596 8.71959e-020)
(292.493 -1.67225 0)
(294.352 -1.61902 -9.05609e-020)
(295.556 -1.49711 9.35045e-020)
(296.865 -1.75248 -9.77234e-020)
(297.901 -2.11837 -2.66987e-023)
(298.049 -2.49193 -9.04703e-023)
(297.115 -2.7149 -2.13822e-022)
(295.716 -2.70234 -4.6436e-022)
(294.669 -3.00125 1.69084e-019)
(293.787 -2.89161 -1.79139e-019)
(292.968 -2.80698 1.87189e-019)
(292.693 -2.69126 0)
(293.093 -2.50856 0)
(293.863 -1.9024 0)
(294.062 -0.961537 0)
(293.466 -0.665784 0)
(292.358 -0.490671 0)
(290.663 -0.279616 -2.23066e-019)
(288.598 0.268031 4.572e-019)
(286.137 1.31456 -2.40779e-021)
(282.151 2.27349 -2.40154e-019)
(274.019 2.97307 0)
(255.385 1.67766 0)
(205.07 -5.55126 0)
(103.308 19.0111 0)
(20.6694 6.38166 -2.01037e-019)
(6.55241e-011 -1.22151e-011 0)
(8.63445e-010 -1.05285e-010 -3.26777e-021)
(6.47383e-009 -7.32083e-010 1.00744e-020)
(6.07745e-008 -5.99804e-009 -6.902e-021)
(4.13631e-007 -3.69322e-008 0)
(3.23199e-006 -2.47528e-007 1.4578e-020)
(1.96342e-005 -1.32604e-006 -2.99623e-020)
(0.000127372 -7.16406e-006 1.53955e-020)
(0.00067755 -3.21223e-005 1.58211e-020)
(0.00362236 -0.000136386 -1.62587e-020)
(0.016509 -0.000473794 -1.67064e-020)
(0.0716836 -0.00148178 5.1496e-020)
(0.270407 -0.00389659 -7.0531e-020)
(0.904941 -0.010659 3.62733e-020)
(2.58044 -0.017674 0)
(6.44713 -0.00931265 0)
(13.9703 0.0195513 0)
(26.4862 0.111669 -3.79844e-020)
(43.9869 0.303504 4.09677e-020)
(65.0492 0.58823 -3.8033e-020)
(87.8662 0.861564 4.1657e-020)
(110.867 1.03957 3.81348e-020)
(133.235 1.21507 -4.17897e-020)
(154.951 1.46983 0)
(175.363 1.47852 0)
(194.696 1.74646 0)
(212.677 1.91859 0)
(228.911 1.9715 0)
(243.566 2.08302 0)
(256.708 1.93271 -8.19696e-020)
(267.556 1.82307 8.82226e-020)
(276.021 1.98054 -8.68691e-020)
(282.74 1.71328 8.98439e-020)
(287.848 1.32571 0)
(291.393 0.835291 9.09681e-020)
(293.482 0.521186 -9.40635e-020)
(294.935 0.39847 9.65048e-020)
(296.529 -0.135325 -1.00767e-019)
(297.899 -0.792653 0)
(298.401 -1.33012 -1.27893e-019)
(297.769 -1.51664 -2.07889e-022)
(296.516 -1.21167 -4.47688e-022)
(295.505 -0.926589 1.74076e-019)
(294.603 -0.135534 0)
(293.678 0.685444 0)
(293.253 1.48411 -2.0021e-019)
(293.446 2.20133 2.06999e-019)
(293.867 2.69068 0)
(293.848 3.19919 2.18078e-019)
(293.301 3.5408 -4.46502e-019)
(292.279 3.62128 1.19147e-021)
(290.626 3.52957 2.32468e-019)
(288.632 3.45648 0)
(286.285 3.87589 0)
(282.52 4.13894 2.44277e-019)
(275.015 4.14908 -4.99783e-019)
(258.333 2.71707 2.23513e-020)
(214.368 -2.81935 4.75757e-019)
(118.43 14.6573 -2.90291e-019)
(25.776 8.511 0)
(6.36447e-011 -1.0564e-011 0)
(8.45123e-010 -1.05328e-010 -3.37992e-021)
(6.2844e-009 -7.4461e-010 3.47339e-021)
(5.93353e-008 -6.16942e-009 -7.13888e-021)
(4.01055e-007 -3.8332e-008 7.3363e-021)
(3.14745e-006 -2.60604e-007 0)
(1.90267e-005 -1.42982e-006 1.54953e-020)
(0.000123812 -7.96955e-006 -3.18477e-020)
(0.00065659 -3.76035e-005 1.63642e-020)
(0.00351765 -0.000170902 1.68163e-020)
(0.0160114 -0.000664624 -1.72819e-020)
(0.0696302 -0.00243724 0)
(0.263 -0.00785909 0)
(0.882462 -0.0251765 0)
(2.52146 -0.0621031 0)
(6.31414 -0.127899 3.87815e-020)
(13.7149 -0.246753 -7.98277e-020)
(26.0712 -0.404165 8.09489e-020)
(43.4005 -0.566463 -8.17415e-020)
(64.319 -0.712754 4.2873e-020)
(87.0415 -0.87616 3.94175e-020)
(110.044 -0.979865 -4.32215e-020)
(132.45 -1.14711 0)
(154.218 -1.16681 0)
(174.787 -1.34555 0)
(194.284 -1.29985 0)
(212.373 -1.35814 0)
(228.733 -1.43242 0)
(243.527 -1.37025 4.12968e-020)
(256.88 -1.56856 -8.69734e-020)
(267.96 -1.36887 4.56301e-020)
(276.538 -1.15851 0)
(283.372 -1.35364 0)
(288.647 -1.34812 -9.17225e-020)
(292.323 -1.50361 9.68658e-022)
(294.503 -1.55777 4.9929e-022)
(295.968 -1.44655 1.45177e-022)
(297.545 -1.72941 -9.28456e-024)
(298.971 -2.14124 1.13761e-019)
(299.595 -2.52199 -1.31583e-019)
(299.073 -2.75268 3.00131e-019)
(297.797 -2.70673 -1.66409e-019)
(296.632 -2.81109 0)
(295.486 -2.64065 0)
(294.244 -2.49147 1.99533e-019)
(293.493 -2.33017 -2.07124e-019)
(293.497 -2.12367 0)
(294.066 -1.60323 -2.1956e-019)
(294.209 -0.71236 4.51943e-019)
(293.595 -0.0709699 -2.31505e-019)
(292.511 0.298158 2.3465e-019)
(290.874 0.544628 -2.40583e-019)
(288.928 1.04868 -2.44063e-019)
(286.69 1.84923 2.51303e-019)
(283.233 2.51652 2.53181e-019)
(276.443 3.17182 -2.63249e-019)
(261.543 3.04492 0)
(222.88 -0.379054 0)
(132.827 10.42 0)
(32.0574 11.1158 0)
(6.18356e-011 -1.26047e-011 0)
(8.28684e-010 -1.07772e-010 0)
(6.10432e-009 -7.52267e-010 0)
(5.80079e-008 -6.20111e-009 0)
(3.89646e-007 -3.82314e-008 0)
(3.07327e-006 -2.57584e-007 0)
(1.85067e-005 -1.38946e-006 0)
(0.000120895 -7.57462e-006 0)
(0.000640029 -3.44811e-005 0)
(0.0034394 -0.000149134 0)
(0.0156565 -0.00053434 0)
(0.0682579 -0.00176556 0)
(0.258187 -0.00474098 0)
(0.868646 -0.0141441 0)
(2.48747 -0.0265268 0)
(6.24267 -0.0312764 0)
(13.5856 -0.0209233 0)
(25.8725 0.040125 0)
(43.1462 0.200026 0)
(64.0291 0.465263 0)
(86.732 0.729814 0)
(109.673 0.907512 0)
(132.008 1.06406 -4.09585e-020)
(153.711 1.33679 4.49582e-020)
(174.124 1.28353 0)
(193.487 1.55562 0)
(211.509 1.71922 0)
(227.802 1.76574 0)
(242.514 1.854 0)
(255.778 1.73825 0)
(266.823 1.56199 0)
(275.444 1.75507 0)
(282.329 1.54854 -4.69701e-020)
(287.662 1.16332 4.83048e-020)
(291.506 0.63025 0)
(293.958 0.225931 0)
(295.718 0.0961451 0)
(297.623 -0.416143 0)
(299.43 -1.00285 0)
(300.477 -1.48474 0)
(300.369 -1.68612 0)
(299.398 -1.43606 1.71607e-019)
(298.418 -1.07918 -1.85682e-019)
(297.362 -0.416565 0)
(296.056 0.361634 0)
(295.092 1.10803 0)
(294.747 1.78418 0)
(294.809 2.25646 -2.27188e-019)
(294.576 2.45746 2.34225e-019)
(293.855 2.85423 0)
(292.736 2.94083 0)
(291.088 2.82082 0)
(289.164 2.97837 0)
(286.971 3.47575 0)
(283.689 3.87697 0)
(277.434 4.2735 0)
(264.023 4.18996 0)
(229.976 1.161 0)
(146.21 6.07845 0)
(39.3403 13.8831 0)
(5.97849e-011 -8.84899e-012 0)
(8.117e-010 -1.08762e-010 0)
(5.93002e-009 -7.58113e-010 3.71558e-021)
(5.67072e-008 -6.28616e-009 -3.81833e-021)
(3.78299e-007 -3.89361e-008 0)
(2.99819e-006 -2.64498e-007 0)
(1.79682e-005 -1.44768e-006 0)
(0.000117778 -8.04618e-006 0)
(0.000621714 -3.78601e-005 -1.75052e-020)
(0.00334868 -0.000171227 3.59782e-020)
(0.0152256 -0.000661646 -1.84869e-020)
(0.0664878 -0.00242559 0)
(0.251766 -0.00756326 0)
(0.849144 -0.0247443 0)
(2.43618 -0.0597313 0)
(6.12672 -0.122256 -4.15071e-020)
(13.3618 -0.230512 1.59164e-021)
(25.5068 -0.373931 4.45414e-020)
(42.6264 -0.513561 0)
(63.3756 -0.630756 0)
(85.9808 -0.771835 4.22224e-020)
(108.915 -0.85951 -4.62866e-020)
(131.282 -1.03014 0)
(153.021 -0.984248 0)
(173.581 -1.18999 0)
(193.096 -1.08614 0)
(211.198 -1.12342 4.38014e-020)
(227.594 -1.18705 -3.00848e-021)
(242.437 -1.14551 -4.6906e-020)
(255.879 -1.29323 0)
(267.127 -1.17398 0)
(275.85 -0.930699 0)
(282.809 -1.05769 0)
(288.301 -1.17927 4.90334e-020)
(292.303 -1.3982 -5.44454e-022)
(294.89 -1.55749 -1.036e-019)
(296.738 -1.49882 5.33478e-020)
(298.71 -1.82123 0)
(300.655 -2.21789 6.02053e-020)
(301.906 -2.57985 -6.93155e-020)
(302.011 -2.78537 -1.58787e-019)
(301.15 -2.65577 1.76976e-019)
(300.134 -2.48559 0)
(298.941 -2.37544 0)
(297.407 -2.15054 0)
(296.161 -1.92734 0)
(295.602 -1.6808 0)
(295.665 -1.20318 0)
(295.452 -0.413441 -2.41505e-019)
(294.559 0.471776 8.84983e-022)
(293.25 0.93626 5.03666e-019)
(291.514 1.15715 -1.44783e-021)
(289.564 1.62704 -2.6309e-019)
(287.415 2.26571 0)
(284.341 2.9596 0)
(278.615 3.73835 -2.7394e-019)
(266.495 4.20009 2.88583e-019)
(236.285 1.81132 0)
(158.901 2.10702 2.14309e-019)
(47.6769 17.047 -3.10124e-019)
(5.80722e-011 -1.00871e-011 0)
(7.9653e-010 -1.09134e-010 0)
(5.76281e-009 -7.60803e-010 -3.84278e-021)
(5.54879e-008 -6.2947e-009 1.18472e-020)
(3.67766e-007 -3.88365e-008 -3.83546e-029)
(2.93005e-006 -2.62457e-007 -1.66819e-020)
(1.74874e-005 -1.42311e-006 1.71433e-020)
(0.00011508 -7.8014e-006 -8.80868e-021)
(0.000606279 -3.59177e-005 0)
(0.0032754 -0.000157233 0)
(0.0148901 -0.0005758 1.91177e-020)
(0.0651821 -0.0019705 -1.96488e-020)
(0.247141 -0.00535739 2.01639e-020)
(0.835748 -0.0168563 -2.07539e-020)
(2.40287 -0.0334481 0)
(6.05597 -0.049271 0)
(13.2327 -0.0547343 0)
(25.3066 -0.0211423 0)
(42.368 0.108461 0)
(63.0811 0.352449 -4.36362e-020)
(85.6742 0.606511 4.77593e-020)
(108.556 0.787323 0)
(130.862 0.925745 0)
(152.548 1.18774 -4.41839e-020)
(172.965 1.10448 4.7845e-020)
(192.359 1.39257 0)
(210.408 1.55197 -4.5351e-020)
(226.751 1.59164 9.37633e-020)
(241.527 1.64522 -4.85657e-020)
(254.904 1.56938 0)
(266.122 1.33273 0)
(274.886 1.52756 -4.97422e-020)
(281.912 1.39636 5.1476e-020)
(287.465 0.992064 5.07414e-020)
(291.634 0.404126 -5.60336e-022)
(294.501 -0.104641 -5.37129e-020)
(296.656 -0.291401 5.50498e-020)
(298.954 -0.81817 2.43106e-024)
(301.257 -1.31992 7.41133e-024)
(302.894 -1.7289 2.8032e-023)
(303.388 -1.91297 -1.63094e-019)
(302.836 -1.68594 1.82623e-019)
(302.01 -1.20583 1.49955e-022)
(300.926 -0.714113 -2.11218e-019)
(299.374 0.042717 1.10502e-019)
(297.939 0.782892 0)
(297.041 1.45908 -2.36575e-019)
(296.643 1.93396 4.8717e-019)
(296.093 2.11353 -2.50663e-019)
(295.075 2.50161 0)
(293.689 2.62488 2.60029e-019)
(291.892 2.54617 -2.66403e-019)
(289.905 2.77315 0)
(287.756 3.10645 0)
(284.81 3.57746 -2.81143e-019)
(279.48 4.10099 5.75643e-019)
(268.434 4.29665 -2.98459e-019)
(241.496 1.80409 0)
(170.697 -1.92197 0)
(56.8362 20.3927 0)
(5.63616e-011 -8.11767e-012 0)
(7.80822e-010 -1.09099e-010 0)
(5.60263e-009 -7.62336e-010 3.97424e-021)
(5.43108e-008 -6.32272e-009 -4.08414e-021)
(3.57489e-007 -3.9109e-008 8.39417e-021)
(2.86294e-006 -2.65505e-007 -8.62631e-021)
(1.70062e-005 -1.45288e-006 0)
(0.000112323 -8.05951e-006 0)
(0.000590098 -3.79252e-005 1.87238e-020)
(0.00319586 -0.000170968 -1.92417e-020)
(0.0145125 -0.000659116 0)
(0.0636386 -0.00241905 2.03124e-020)
(0.241512 -0.00733928 -2.0884e-020)