/*--------------------------------*- C++ -*----------------------------------*\
| =========                 |                                                 |
| \\      /  F ield         | OpenFOAM: The Open Source CFD Toolbox           |
|  \\    /   O peration     | Version:  5.x                                   |
|   \\  /    A nd           | Web:      www.OpenFOAM.org                      |
|    \\/     M anipulation  |                                                 |
\*---------------------------------------------------------------------------*/
/*   Windows 32 and 64 bit porting by blueCAPE: http://www.bluecape.com.pt   *\
|  Based on Windows porting (2.0.x v4) by Symscape: http://www.symscape.com   |
\*---------------------------------------------------------------------------*/
FoamFile
{
    version     2.0;
    format      ascii;
    class       surfaceScalarField;
    location    "0.003";
    object      phi;
}
// * * * * * * * * * * * * * * * * * * * * * * * * * * * * * * * * * * * * * //

dimensions      [1 0 -1 0 0 0 0];

internalField   nonuniform List<scalar> 
19740
(
6.98226e-014
6.93223e-013
2.02292e-013
-1.11022e-014
1.4888e-012
-1.8181e-012
1.42858e-011
1.84031e-012
1.48284e-010
1.09512e-012
1.26625e-009
-9.97424e-013
1.11645e-008
1.22702e-012
8.27122e-008
-5.63549e-013
6.12322e-007
2.48246e-013
3.88565e-006
1.29097e-012
2.38402e-005
4.04121e-013
0.000127448
-3.45057e-013
0.000636451
4.37428e-013
0.00279702
-1.33005e-012
0.0111597
4.19664e-013
0.0371785
1.08891e-012
0.104831
8.37108e-013
0.2479
4.46754e-013
0.498679
-4.64739e-013
0.850897
-2.26041e-013
1.23977
3.23519e-013
1.59676
-2.72005e-013
1.8917
-5.37348e-014
2.10417
9.52571e-014
2.26243
1.1835e-013
2.3894
-3.57825e-013
2.43585
1.00808e-013
2.43947
-1.21014e-014
2.48751
7.58282e-014
2.52968
8.51541e-014
2.51473
1.16573e-013
2.48939
3.9968e-015
2.47566
-1.80411e-014
2.36545
-2.52021e-014
2.10312
-9.40359e-014
1.87586
1.42664e-014
1.72078
2.88936e-013
1.61795
1.65312e-013
1.55371
5.82312e-014
1.46704
-1.00975e-013
1.44746
-1.5421e-013
1.43057
-1.42164e-013
1.41407
-2.60736e-013
1.39039
-4.69569e-013
1.33118
-7.66998e-013
1.15385
-1.30401e-012
0.430821
-9.48158e-013
0.106256
-1.20376e-013
0.0190123
1.58207e-014
0.00337194
4.40342e-014
0.000604175
1.21847e-014
0.00011181
-1.92901e-014
2.14149e-005
-2.41335e-014
4.23713e-006
-5.60385e-014
8.66227e-007
-2.41474e-014
1.83018e-007
1.11022e-015
3.99589e-008
3.85664e-014
9.02892e-009
2.70201e-014
2.0643e-009
4.27575e-014
-6.10623e-016
6.8107e-014
1.40332e-012
1.91553e-013
2.93987e-013
1.4409e-012
4.05898e-013
1.38253e-011
2.32658e-012
1.43493e-010
9.58345e-013
1.22534e-009
-2.29683e-012
1.08038e-008
1.59428e-012
8.00396e-008
-1.15374e-012
5.92537e-007
5.84865e-013
3.7601e-006
9.90319e-013
2.30699e-005
2.10054e-013
0.00012333
-2.77112e-013
0.000615885
4.46754e-013
0.00270664
-1.18527e-012
0.0107991
3.84137e-013
0.0359772
1.16174e-012
0.101443
1.45883e-012
0.23989
9.49463e-013
0.482566
-3.78364e-013
0.823402
-8.89955e-013
1.19971
-6.75682e-013
1.54517
-1.09246e-013
1.83057
6.06182e-014
2.03618
2.36033e-013
2.18932
1.94289e-013
2.31219
-7.87148e-013
2.35714
-9.24816e-014
2.36064
-1.78857e-013
2.40714
-1.10689e-013
2.44794
-3.10862e-014
2.43347
1.70031e-013
2.40895
1.36446e-013
2.39566
1.14853e-013
2.28902
1.07803e-013
2.03517
-2.81442e-014
1.81525
-4.2244e-014
1.66517
3.68261e-013
1.56567
3.23963e-013
1.50351
2.00673e-013
1.41964
9.04832e-014
1.40069
4.67404e-014
1.38435
2.05114e-013
1.36838
1.21236e-013
1.34546
-8.43214e-014
1.28817
-3.01925e-013
1.11657
-5.78704e-013
0.4169
-5.65076e-013
0.102823
-2.03865e-014
0.018398
3.3612e-014
0.00326299
4.42008e-014
0.000584653
3.4972e-014
0.000108197
-2.07057e-014
2.07229e-005
6.39766e-015
4.10022e-006
-7.27335e-014
8.38237e-007
-3.50275e-014
1.77105e-007
2.30371e-014
3.86678e-008
4.12725e-014
8.73718e-009
2.23849e-014
1.9976e-009
4.92245e-014
-1.38917e-014
6.21222e-014
1.25944e-012
1.92682e-013
1.31983e-012
1.40066e-012
2.19869e-012
1.3376e-011
6.80789e-013
1.38852e-010
5.56e-013
1.18574e-009
-2.47935e-012
1.04547e-008
1.39133e-012
7.74533e-008
-1.07425e-012
5.73391e-007
9.93872e-013
3.6386e-006
1.42419e-012
2.23245e-005
6.58584e-013
0.000119345
1.02141e-014
0.000595985
1.9762e-013
0.00261918
-1.32649e-012
0.0104502
2.72671e-013
0.0348147
2.20313e-012
0.0981654
1.97975e-012
0.232138
1.30695e-012
0.466973
-6.14619e-013
0.796797
-7.61169e-013
1.16095
-6.8523e-013
1.49524
-2.085e-013
1.77142
-1.52323e-013
1.97039
1.77414e-013
2.11858
6.9611e-014
2.23748
-6.83897e-013
2.28098
-9.25926e-014
2.28437
5.9952e-015
2.32936
-1.95843e-013
2.36884
-1.32561e-013
2.35484
1.40443e-013
2.33111
4.16334e-014
2.31825
-2.98095e-014
2.21506
-1.07137e-014
1.96941
-5.84532e-014
1.75659
-1.38944e-013
1.61137
3.23741e-013
1.51508
2.72338e-013
1.45493
4.19109e-014
1.37377
3.2363e-013
1.35543
2.17715e-013
1.33962
5.88474e-013
1.32417
6.39044e-013
1.30199
5.49782e-013
1.24654
6.24889e-013
1.08049
7.48901e-013
0.403429
8.26117e-013
0.0995003
6.07847e-014
0.0178035
5.84255e-014
0.00315755
5.6205e-014
0.000565761
3.25018e-014
0.000104701
-4.94327e-014
2.00533e-005
2.18436e-014
3.96773e-006
-6.10206e-014
8.11152e-007
-9.54792e-015
1.71382e-007
-4.3715e-015
3.74183e-008
6.01602e-014
8.45486e-009
1.82909e-014
1.93305e-009
4.97657e-014
-5.20139e-014
6.15124e-014
4.71623e-013
1.78348e-013
1.3225e-012
1.34748e-012
2.28439e-012
1.29411e-011
1.52989e-012
1.34368e-010
1.11378e-012
1.14743e-009
-3.48876e-012
1.01169e-008
7.49178e-013
7.49506e-008
-2.30038e-013
5.54863e-007
1.77636e-012
3.52103e-006
2.11609e-012
2.16031e-005
1.90292e-012
0.000115488
2.18492e-013
0.000576727
2.71339e-013
0.00253455
-1.51879e-012
0.0101125
7.37188e-013
0.0336898
2.83285e-012
0.0949935
2.56373e-012
0.224637
1.42464e-012
0.451884
-2.8999e-013
0.77105
-7.21645e-013
1.12343
-8.14682e-013
1.44693
-3.07754e-013
1.71418
-4.43645e-013
1.90672
9.17044e-014
2.05013
8.62643e-014
2.16518
-1.42886e-013
2.20727
-1.49547e-013
2.21055
1.98508e-013
2.25409
-1.1624e-013
2.2923
-5.86198e-014
2.27875
-5.65104e-014
2.25579
-3.9968e-014
2.24335
4.30767e-014
2.14348
-1.51545e-014
1.90577
-1.99618e-013
1.69983
-1.8141e-013
1.5593
2.44693e-013
1.46613
3.03646e-014
1.40791
-2.60514e-013
1.32938
2.03948e-013
1.31163
2.31204e-013
1.29633
4.25437e-013
1.28138
3.78919e-013
1.25992
3.82361e-013
1.20626
4.60021e-013
1.04558
5.38347e-013
0.390393
1.00914e-012
0.0962853
9.20652e-014
0.0172283
8.43631e-014
0.00305553
3.73312e-014
0.00054748
2.68674e-014
0.000101318
-5.95496e-014
1.94054e-005
2.18575e-014
3.83952e-006
-3.82055e-014
7.84942e-007
1.79301e-014
1.65844e-007
1.50158e-014
3.62093e-008
4.67681e-014
8.18166e-009
3.97321e-014
1.87059e-009
3.24879e-014
-9.13158e-014
6.0286e-014
8.97948e-013
1.81323e-013
1.34426e-012
1.3108e-012
2.43983e-012
1.25219e-011
1.79989e-012
1.30022e-010
7.30527e-013
1.11036e-009
-4.40314e-012
9.78996e-009
8.70859e-013
7.25288e-008
6.28386e-013
5.36935e-007
2.65254e-012
3.40726e-006
2.36255e-012
2.09051e-005
2.97895e-012
0.000111757
4.49418e-013
0.000558092
7.37188e-014
0.00245265
-1.56275e-012
0.00978578
1.45706e-012
0.0326012
2.72893e-012
0.091924
3.39195e-012
0.217379
1.529e-012
0.437283
-7.86482e-013
0.746136
-3.14415e-013
1.08713
-9.72111e-013
1.40017
-5.46896e-013
1.6588
-1.26787e-013
1.84511
5.28466e-014
1.98388
2.31593e-013
2.09522
-3.20854e-014
2.13595
1.06692e-013
2.13913
2.24376e-013
2.18126
-1.30784e-013
2.21823
-1.57874e-013
2.20512
-1.34337e-014
2.1829
5.39568e-014
2.17086
1.66811e-013
2.07422
7.51066e-014
1.84419
-1.8413e-013
1.64491
-3.11418e-014
1.50892
1.12854e-013
1.41875
-3.31735e-013
1.36242
-5.20473e-013
1.28642
4.16334e-014
1.26925
6.61138e-014
1.25444
-3.33067e-014
1.23998
-1.89904e-013
1.21921
-3.2585e-013
1.16729
-5.04041e-013
1.01179
-1.00309e-012
0.377779
-1.61787e-013
0.0931741
-4.56857e-014
0.0166716
5.74402e-014
0.0029568
-1.77081e-014
0.00052979
4.35207e-014
9.80439e-005
-6.63358e-014
1.87783e-005
3.55271e-014
3.71546e-006
2.10942e-015
7.59579e-007
4.32987e-014
1.60486e-007
2.59237e-014
3.50393e-008
2.30232e-014
7.9173e-009
5.19168e-014
1.81015e-009
2.54241e-014
-1.52212e-013
5.95773e-014
1.74971e-012
1.6839e-013
3.29958e-013
1.2624e-012
2.90079e-012
1.2112e-011
1.39488e-012
1.25819e-010
5.18252e-013
1.07448e-009
-4.2415e-012
9.47363e-009
3.85914e-013
7.01853e-008
1.15419e-012
5.19585e-007
2.88036e-012
3.29716e-006
2.45581e-012
2.02296e-005
3.11617e-012
0.000108146
8.64642e-013
0.000540059
-1.77636e-015
0.0023734
-1.26077e-012
0.00946958
2.37188e-012
0.0315478
3.25473e-012
0.0889538
2.60325e-012
0.210355
1.68088e-012
0.423153
-3.08642e-013
0.722027
-4.88498e-013
1.05201
-8.75966e-013
1.35493
-4.8539e-013
1.6052
-2.2049e-013
1.78549
1.46327e-013
1.91978
4.62297e-013
2.02752
-4.46865e-013
2.06694
-1.46438e-013
2.07001
1.64091e-013
2.11078
-1.8785e-013
2.14656
-1.83076e-013
2.13387
3.67484e-014
2.11237
2.62235e-013
2.10071
4.74509e-013
2.0072
3.8014e-013
1.7846
6.81122e-014
1.59176
1.50269e-013
1.46016
-4.16889e-014
1.37291
-5.72487e-013
1.3184
-6.09623e-013
1.24485
-5.4734e-014
1.22824
7.79932e-014
1.21391
-3.95739e-013
1.19991
-4.5236e-013
1.17981
-7.1404e-013
1.12957
-9.59066e-013
0.979099
-1.62725e-012
0.365572
-1.00103e-012
0.0901634
-2.02255e-013
0.0161329
2.31065e-014
0.00286126
-6.89171e-014
0.000512671
1.92901e-014
9.48759e-005
-4.70873e-014
1.81716e-005
2.87964e-014
3.59541e-006
2.51049e-014
7.35035e-007
3.00177e-014
1.553e-007
4.45477e-014
3.39071e-008
-3.4972e-015
7.66147e-009
3.78586e-014
1.75165e-009
2.30649e-014
-2.45859e-013
5.69839e-014
2.65921e-012
1.70391e-013
-3.3662e-013
1.22579e-012
3.09885e-012
1.17217e-011
9.62341e-013
1.21752e-010
3.10862e-013
1.03976e-009
-3.95506e-012
9.16752e-009
4.97824e-013
6.79174e-008
9.07274e-013
5.02796e-007
3.12683e-012
3.19062e-006
1.55564e-012
1.95759e-005
3.40261e-012
0.000104651
9.41025e-013
0.000522609
-3.4639e-013
0.00229671
-7.92255e-013
0.0091636
3.01226e-012
0.0305284
3.05311e-012
0.0860795
2.08766e-012
0.203558
1.68354e-012
0.40948
8.43769e-014
0.698697
-3.06866e-013
1.01801
-6.10845e-013
1.31115
-9.41469e-014
1.55333
-4.29212e-013
1.7278
2.10942e-013
1.85775
9.81437e-014
1.96201
-1.39555e-013
2.00015
-2.87104e-013
2.00312
1.34892e-013
2.04257
-1.02363e-013
2.0772
-2.64122e-013
2.06492
9.39249e-014
2.04411
5.91971e-013
2.03284
8.9817e-013
1.94234
7.82485e-013
1.72694
3.34288e-013
1.54032
2.82885e-013
1.41298
-2.90323e-014
1.32855
-5.36904e-013
1.2758
-3.59934e-013
1.20463
-5.66214e-015
1.18855
1.70919e-013
1.17469
-4.22384e-013
1.16114
-3.61489e-013
1.14169
-4.36706e-013
1.09307
-4.88498e-013
0.947462
-6.31883e-013
0.35376
-3.76144e-013
0.0872501
-1.52794e-013
0.0156116
-2.28983e-014
0.0027688
-4.88359e-014
0.000496106
-2.59515e-015
9.18102e-005
-2.45637e-014
1.75844e-005
3.15997e-014
3.47923e-006
1.69864e-014
7.11284e-007
4.16334e-014
1.50282e-007
3.14332e-014
3.28115e-008
9.63118e-015
7.41391e-009
1.75415e-014
1.69505e-009
1.44745e-014
-3.41852e-013
5.4564e-014
1.72218e-012
1.59954e-013
-3.21521e-013
1.18139e-012
2.44427e-012
1.13367e-011
-7.9492e-014
1.17814e-010
5.4845e-013
1.00617e-009
-3.1144e-012
8.8713e-009
1.17106e-012
6.57229e-008
1.1835e-012
4.8655e-007
3.37685e-012
3.08753e-006
8.0691e-013
1.89434e-005
3.78408e-012
0.00010127
1.27764e-012
0.000505722
1.1946e-013
0.0022225
-6.79012e-013
0.0088675
3.56026e-012
0.029542
2.47802e-012
0.0832981
1.9349e-012
0.196981
1.71507e-012
0.396249
2.06946e-013
0.67612
-1.66533e-013
0.985119
-8.37774e-013
1.26878
2.76223e-013
1.50314
-2.77112e-013
1.67197
1.74971e-013
1.79772
8.4599e-014
1.89861
-1.77858e-013
1.93552
-1.52212e-013
1.93839
-7.24976e-014
1.97657
-2.84328e-013
2.01008
-1.29674e-013
1.9982
2.02949e-013
1.97806
8.85847e-013
1.96715
1.21514e-012
1.87958
1.15763e-012
1.67114
7.37521e-013
1.49055
5.45841e-013
1.36732
7.88813e-014
1.28562
-2.57849e-013
1.23457
2.57017e-013
1.16571
2.18214e-013
1.15014
3.06422e-013
1.13673
-3.43725e-013
1.12362
-2.15383e-013
1.1048
-1.26454e-013
1.05775
7.06102e-014
0.916847
4.65072e-013
0.342329
8.04745e-013
0.0844308
-4.96547e-014
0.0151072
-2.91711e-014
0.00267934
-2.09555e-014
0.000480076
-3.21687e-014
8.88436e-005
-3.6221e-014
1.70162e-005
3.56104e-014
3.36681e-006
2.77556e-014
6.88301e-007
4.31599e-014
1.45426e-007
4.42146e-014
3.17513e-008
2.8838e-014
7.17435e-009
6.85563e-015
1.64027e-009
-7.17482e-015
-4.67126e-013
5.17442e-014
1.84741e-013
1.60165e-013
-6.59917e-013
1.14611e-012
1.44329e-012
1.09734e-011
-1.53655e-013
1.14009e-010
1.1946e-012
9.73659e-010
-2.68274e-012
8.58465e-009
1.48326e-012
6.35992e-008
1.57252e-012
4.70828e-007
2.7387e-012
2.98776e-006
6.17284e-014
1.83313e-005
4.1176e-012
9.79975e-005
1.87983e-012
0.000489381
5.78204e-013
0.00215069
-6.81677e-013
0.00858097
3.9222e-012
0.0285874
1.9118e-012
0.0806065
1.56364e-012
0.190616
1.55254e-012
0.383445
4.80949e-013
0.654273
-1.4877e-013
0.953287
-1.14975e-012
1.22779
7.08766e-013
1.45457
-3.87912e-013
1.61794
-4.41869e-014
1.73963
1.24789e-013
1.83726
-3.03313e-013
1.87298
-1.88516e-013
1.87576
-1.87406e-013
1.91271
-2.39364e-013
1.94513
-1.47549e-013
1.93363
2.28373e-013
1.91415
9.9043e-013
1.90359
1.33926e-012
1.81885
1.19982e-012
1.61714
9.44467e-013
1.44239
7.54286e-013
1.32314
1.68532e-013
1.24408
3.63654e-013
1.19468
1.13842e-012
1.12804
6.93223e-013
1.11298
5.9569e-013
1.1
-3.06921e-013
1.08731
-2.48579e-013
1.0691
-2.59071e-013
1.02357
-1.26454e-013
0.887222
4.3654e-013
0.331268
1.11205e-012
0.0817027
2.28983e-014
0.014619
-1.45162e-014
0.00259276
-1.71252e-014
0.000464563
-3.46667e-014
8.59729e-005
-4.47836e-014
1.64664e-005
3.63598e-014
3.25802e-006
4.28546e-014
6.66061e-007
4.83918e-014
1.40727e-007
5.65242e-014
3.07253e-008
6.23113e-014
6.94253e-009
-2.55906e-014
1.58727e-009
-1.29341e-014
-6.37157e-013
5.11041e-014
4.06786e-013
1.50221e-013
-6.44818e-013
1.10642e-012
1.5854e-012
1.06134e-011
-1.14397e-012
1.10322e-010
1.64579e-012
9.42201e-010
-1.96287e-012
8.30727e-009
1.24967e-012
6.15442e-008
1.01386e-012
4.55615e-007
2.2804e-012
2.89122e-006
-1.74527e-013
1.7739e-005
4.65805e-012
9.4831e-005
1.83098e-012
0.000473568
6.60361e-013
0.00208119
-7.50067e-013
0.0083037
3.67839e-012
0.0276637
1.60494e-012
0.078002
1.28519e-012
0.184457
1.49036e-012
0.371055
8.56204e-013
0.633133
-4.92495e-013
0.922485
-8.52207e-013
1.18811
2.99316e-013
1.40757
-1.99174e-013
1.56566
-1.83853e-013
1.68342
5.4845e-014
1.7779
-2.09388e-013
1.81246
-4.82614e-013
1.81515
-1.90958e-013
1.8509
-1.20903e-013
1.88228
-1.36557e-014
1.87115
1.96954e-013
1.8523
9.47131e-013
1.84208
1.13343e-012
1.76008
1.00231e-012
1.56489
1.00864e-012
1.39578
8.57647e-013
1.28039
2.60569e-013
1.20388
1.12743e-012
1.15608
2.1344e-012
1.09159
1.44929e-012
1.07702
1.00076e-012
1.06446
-1.76414e-013
1.05218
-4.57023e-013
1.03456
-7.88647e-013
0.990499
-1.22641e-012
0.858554
-1.26366e-012
0.320564
-6.29496e-014
0.0790627
7.24143e-014
0.0141466
2.04836e-014
0.00250898
-3.94129e-015
0.000449552
-4.13558e-014
8.31949e-005
-6.46982e-014
1.59343e-005
1.69309e-014
3.15275e-006
4.5311e-014
6.44539e-007
6.56558e-014
1.3618e-007
4.78367e-014
2.97325e-008
7.36633e-014
6.7182e-009
-7.41907e-014
1.53597e-009
-7.95197e-015
-8.61838e-013
4.91478e-014
4.23661e-013
1.51002e-013
2.17604e-013
1.07395e-012
1.81544e-012
1.02741e-011
-1.25855e-012
1.06759e-010
1.81277e-012
9.11755e-010
-2.32081e-012
8.03884e-009
8.56204e-013
5.95556e-008
3.64153e-013
4.40893e-007
1.89315e-012
2.7978e-006
-4.56968e-013
1.71658e-005
4.38183e-012
9.17668e-005
1.13509e-012
0.000458266
7.65166e-013
0.00201395
-3.85914e-013
0.00803539
3.31868e-012
0.0267698
1.76881e-012
0.0754816
1.18128e-012
0.178496
9.78329e-013
0.359066
3.87246e-013
0.612675
-3.52607e-013
0.892677
-1.48326e-012
1.14972
5.00711e-013
1.36209
-2.28706e-013
1.51507
-8.57092e-014
1.62903
1.08802e-013
1.72045
-3.19522e-013
1.75389
-4.80838e-013
1.7565
-3.4428e-013
1.7911
-1.90514e-013
1.82146
-4.60743e-014
1.81069
7.76046e-014
1.79245
5.5389e-013
1.78256
7.27418e-013
1.70321
6.35936e-013
1.51432
8.73968e-013
1.35068
7.69607e-013
1.23902
4.14224e-013
1.16498
1.70719e-012
1.11872
2.775e-012
1.05632
2.16027e-012
1.04222
1.4786e-012
1.03006
1.02696e-014
1.01818
-6.12455e-013
1.00113
-1.34082e-012
0.958494
-2.38398e-012
0.830812
-3.12633e-012
0.310206
-1.84219e-012
0.076508
-1.15491e-013
0.0136895
1.92901e-014
0.00242791
2.99066e-014
0.000435026
-2.2371e-014
8.05067e-005
-4.89192e-014
1.54194e-005
-2.08167e-015
3.05088e-006
3.94962e-014
6.23713e-007
8.54733e-014
1.31779e-007
3.815e-014
2.87718e-008
7.30804e-014
6.50112e-009
-1.18017e-013
1.48633e-009
-9.52016e-015
-1.13116e-012
4.71892e-014
1.18217e-012
1.40648e-013
-2.77112e-013
1.03541e-012
1.98863e-012
9.93839e-012
-7.53175e-013
1.03308e-010
2.09344e-012
8.82297e-010
-2.6521e-012
7.77909e-009
6.40377e-013
5.76312e-008
1.51879e-013
4.26647e-007
1.61338e-012
2.7074e-006
-4.35207e-013
1.66111e-005
4.77174e-012
8.88016e-005
4.96936e-013
0.000443459
1.42375e-012
0.00194887
4.66294e-014
0.00777575
2.6521e-012
0.0259048
2.28217e-012
0.0730426
1.34204e-012
0.172729
6.19504e-013
0.347464
1.77192e-013
0.592878
6.83897e-014
0.863833
-9.40137e-013
1.11257
8.52207e-013
1.31807
-5.05818e-013
1.46612
-8.74856e-014
1.57639
-8.57092e-014
1.66486
-2.30038e-013
1.69722
-2.99316e-013
1.69974
-2.48135e-013
1.73322
-1.55542e-013
1.7626
-8.92619e-014
1.75218
8.87068e-014
1.73453
3.33511e-013
1.72496
5.43898e-013
1.64817
4.84723e-013
1.46539
7.75713e-013
1.30704
4.64295e-013
1.19898
5.15477e-013
1.12734
2.08711e-012
1.08258
2.98717e-012
1.02219
2.70606e-012
1.00854
2.07651e-012
0.996777
1.51101e-013
0.985281
-6.08735e-013
0.96878
-1.54005e-012
0.927523
-2.89863e-012
0.803967
-4.07013e-012
0.300182
-2.59659e-012
0.0740359
-2.09416e-013
0.0132472
-1.94844e-014
0.00234946
2.18159e-014
0.00042097
-1.48492e-015
7.79054e-005
-5.28605e-014
1.49212e-005
-1.05888e-014
2.9523e-006
2.5549e-014
6.03559e-007
8.8804e-014
1.27521e-007
3.38757e-014
2.78421e-008
6.76265e-014
6.29104e-009
-1.76983e-013
1.43829e-009
-1.65146e-015
-1.48892e-012
4.71853e-014
1.61915e-012
1.41684e-013
-9.14824e-013
1.00508e-012
1.92291e-012
9.61975e-012
-9.92983e-013
9.99704e-011
1.10134e-012
8.53786e-010
-2.74181e-012
7.52773e-009
3.0731e-013
5.5769e-008
3.25073e-013
4.12861e-007
1.26299e-012
2.61992e-006
-1.24345e-014
1.60744e-005
5.39924e-012
8.59323e-005
3.92131e-013
0.000429129
1.76614e-012
0.0018859
3.85914e-013
0.0075245
2.4869e-012
0.0250678
1.66089e-012
0.0706824
1.54587e-012
0.167148
3.69482e-013
0.336236
2.30482e-013
0.573721
2.62457e-013
0.835921
-6.28386e-013
1.07662
1.25144e-012
1.27548
-4.13891e-013
1.41874
-1.53877e-013
1.52545
3.68594e-014
1.61106
-1.4988e-013
1.64238
-2.1072e-013
1.64482
-1.38667e-013
1.67722
-1.46549e-014
1.70565
1.4877e-014
1.69557
1.10911e-013
1.67848
3.36731e-013
1.66922
3.60045e-013
1.59492
3.68816e-013
1.41804
6.09179e-013
1.26481
2.57239e-013
1.16024
6.91447e-013
1.09091
2.08888e-012
1.0476
2.6994e-012
0.989158
2.87947e-012
0.975953
2.60414e-012
0.964569
2.90878e-013
0.953445
-3.47666e-013
0.937477
-1.3452e-012
0.897553
-2.65149e-012
0.777989
-3.67417e-012
0.290483
-2.37471e-012
0.0716436
-2.0095e-013
0.0128192
-1.27953e-014
0.00227355
3.50553e-014
0.000407367
1.59872e-014
7.53881e-005
-6.01463e-014
1.44391e-005
-2.28151e-014
2.8569e-006
4.3951e-014
5.84057e-007
8.30724e-014
1.23401e-007
3.59018e-014
2.69425e-008
6.12149e-014
6.08776e-009
-2.34715e-013
1.39181e-009
5.19029e-015
-1.93724e-012
4.23823e-014
2.33857e-012
1.32246e-013
-7.63833e-013
9.69671e-013
2.10409e-012
9.3056e-012
-1.89893e-012
9.67385e-011
-2.95763e-013
8.26201e-010
-2.61924e-012
7.2845e-009
-5.86198e-014
5.3967e-008
4.70735e-014
3.99521e-007
1.10045e-012
2.53526e-006
2.41585e-013
1.5555e-005
5.33751e-012
8.31556e-005
3.54827e-013
0.000415263
2.38431e-012
0.00182496
7.72715e-013
0.00728137
1.82165e-012
0.0242578
1.06448e-012
0.0683985
1.39488e-012
0.161747
2.63345e-013
0.325372
1.59872e-013
0.555183
4.24549e-013
0.80891
-8.73968e-013
1.04184
1.02141e-012
1.23427
-1.82521e-013
1.3729
1.28342e-013
1.47616
-8.88178e-014
1.559
-2.44693e-013
1.58931
-2.11164e-013
1.59167
-1.18461e-013
1.62302
-5.72875e-014
1.65054
1.06248e-013
1.64078
8.60423e-014
1.62425
2.32814e-013
1.61529
3.88023e-013
1.54338
4.16445e-013
1.37222
5.16254e-013
1.22394
4.41869e-014
1.12275
8.35665e-013
1.05566
1.67732e-012
1.01375
1.95288e-012
0.957196
2.4668e-012
0.944418
2.6481e-012
0.933402
5.68767e-013
0.922637
4.65739e-014
0.907185
-8.88789e-013
0.868551
-1.91175e-012
0.752851
-2.38903e-012
0.281097
-1.49097e-012
0.0693287
-2.16771e-013
0.0124049
-1.17961e-014
0.00220008
3.37785e-014
0.000394205
2.23155e-014
7.29522e-005
-4.52416e-014
1.39725e-005
-3.25295e-014
2.76459e-006
5.86892e-014
5.65185e-007
6.5975e-014
1.19414e-007
4.41591e-014
2.60719e-008
5.49283e-014
5.89105e-009
-2.78666e-013
1.34682e-009
1.54043e-014
-2.52162e-012
4.38915e-014
2.52331e-012
1.32611e-013
-9.79661e-013
9.3992e-013
1.63247e-012
9.0071e-012
-1.39977e-012
9.36136e-011
-1.25056e-012
7.99504e-010
-2.59703e-012
7.04912e-009
-3.85469e-013
5.22232e-008
-6.29718e-013
3.86611e-007
1.15463e-012
2.45334e-006
4.11227e-013
1.50524e-005
5.63372e-012
8.04687e-005
1.15019e-013
0.000401845
2.97851e-012
0.00176599
1.46194e-012
0.00704609
1.52633e-012
0.023474
1.05516e-012
0.0661884
1.01652e-012
0.15652
2.22933e-013
0.314858
-4.04121e-013
0.537243
4.25437e-013
0.782773
-9.19265e-013
1.00817
1.13509e-012
1.19439
-1.67644e-013
1.32854
2.02061e-014
1.42846
-2.12497e-013
1.50863
-2.17382e-013
1.53796
-1.9762e-013
1.54024
-1.108e-013
1.57058
-5.89528e-014
1.5972
1.56097e-013
1.58776
1.02585e-013
1.57176
1.87628e-013
1.56309
4.14779e-013
1.49351
4.67848e-013
1.32788
3.15858e-013
1.18439
-1.55431e-013
1.08647
8.82405e-013
1.02155
9.85767e-013
0.98099
1.11711e-012
0.926267
1.85119e-012
0.913902
2.15605e-012
0.903241
7.8082e-013
0.892825
4.71956e-013
0.877872
-3.08975e-013
0.840486
-1.02479e-012
0.728525
-9.04998e-013
0.272014
-6.55198e-013
0.0670885
-9.54237e-014
0.0120041
1.46827e-014
0.00212899
1.64591e-014
0.000381467
4.02456e-014
7.05949e-005
-4.01068e-014
1.3521e-005
-9.21485e-015
2.67526e-006
8.40161e-014
5.46922e-007
5.27495e-014
1.15555e-007
6.93473e-014
2.52295e-008
7.37327e-014
5.70069e-009
-3.41893e-013
1.30328e-009
3.93852e-014
-3.24271e-012
3.71374e-014
1.4877e-012
1.23414e-013
-7.06102e-013
9.06086e-013
1.89271e-012
8.71329e-012
-3.14415e-013
9.05882e-011
-1.53033e-012
7.73671e-010
-2.37854e-012
6.82135e-009
-1.06493e-012
5.05358e-008
-1.51967e-012
3.74119e-007
5.02709e-013
2.37407e-006
5.21361e-013
1.4566e-005
5.42943e-012
7.78686e-005
3.76588e-013
0.000388861
3.09042e-012
0.00170893
1.31983e-012
0.00681842
1.65601e-012
0.0227155
9.30367e-013
0.0640497
1.05249e-012
0.151463
-3.9968e-013
0.304685
-4.76508e-013
0.519884
-7.10543e-015
0.75748
-3.84581e-013
0.975597
8.6775e-013
1.1558
-1.06581e-014
1.28561
-1.69198e-013
1.38231
-2.19824e-013
1.45988
-2.69784e-013
1.48826
-1.96732e-013
1.49048
-4.52971e-014
1.51983
1.04472e-013
1.54559
1.31117e-013
1.53646
2.23932e-013
1.52098
1.43774e-013
1.51259
4.3443e-013
1.44525
5.7887e-013
1.28497
2.48579e-013
1.14612
-1.56319e-013
1.05137
9.44023e-013
0.988542
4.62186e-013
0.949292
6.23168e-013
0.896337
1.39455e-012
0.884372
1.53588e-012
0.874056
9.20375e-013
0.863976
5.68101e-013
0.849506
-1.20015e-013
0.813328
-4.79894e-013
0.704984
2.74669e-013
0.263224
-4.48697e-013
0.0649207
-1.19349e-014
0.0116162
3.45279e-014
0.0020602
-5.96745e-015
0.000369141
3.53328e-014
6.83139e-005
-3.61378e-014
1.30841e-005
2.9976e-015
2.58882e-006
8.335e-014
5.2925e-007
5.70932e-014
1.11821e-007
6.35603e-014
2.44142e-008
9.51739e-014
5.51648e-009
-4.42701e-013
1.26114e-009
6.91391e-014
-4.1375e-012
3.99364e-014
2.5544e-012
1.244e-013
-2.75335e-014
8.78832e-013
2.11742e-012
8.43284e-012
-5.86198e-013
8.76612e-011
-1.34026e-012
7.48672e-010
-2.70628e-012
6.60094e-009
-1.57119e-012
4.89029e-008
-2.34301e-012
3.6203e-007
4.76064e-013
2.29736e-006
9.79661e-013
1.40953e-005
5.16831e-012
7.53525e-005
6.24389e-013
0.000376296
3.29159e-012
0.00165371
9.86766e-013
0.0065981
1.74039e-012
0.0219815
7.18536e-013
0.0619802
1.00808e-012
0.146569
-4.7562e-013
0.29484
-4.95604e-013
0.503085
1.82965e-013
0.733004
-2.26485e-014
0.944073
8.40661e-013
1.11845
-9.50351e-014
1.24407
-5.42677e-013
1.33764
-6.8523e-013
1.41271
-1.75859e-013
1.44018
-3.55493e-013
1.44231
-2.54463e-013
1.47072
9.09273e-014
1.49565
1.52434e-013
1.48681
3.43725e-013
1.47183
1.92513e-013
1.46371
6.43818e-013
1.39855
7.66276e-013
1.24345
2.8344e-013
1.10909
1.88405e-013
1.01739
1.1191e-012
0.9566
2.31926e-013
0.918618
4.32876e-013
0.867375
1.23901e-012
0.855796
1.19027e-012
0.845813
1.21503e-012
0.836059
4.75842e-013
0.822057
-2.38809e-013
0.787048
-5.75373e-013
0.682205
1.82687e-013
0.254719
-8.9484e-013
0.062823
7.54952e-015
0.0112409
7.25253e-014
0.00199363
-2.1011e-014
0.000357213
2.51743e-014
6.61065e-005
-4.45755e-014
1.26614e-005
1.79856e-014
2.50517e-006
6.26166e-014
5.12149e-007
5.43177e-014
1.08208e-007
6.93057e-014
2.36254e-008
1.05901e-013
5.33822e-009
-5.61745e-013
1.22036e-009
9.56873e-014
-5.20077e-012
3.3759e-014
1.53921e-012
1.16137e-013
-8.95284e-013
8.47351e-013
1.87228e-012
8.15799e-012
-2.59348e-013
8.4828e-011
-1.35625e-012
7.24481e-010
-2.61657e-012
6.38765e-009
-1.86251e-012
4.73227e-008
-2.9976e-012
3.50332e-007
-4.35207e-014
2.22312e-006
8.79297e-013
1.36399e-005
5.21982e-012
7.29177e-005
3.74811e-013
0.000364137
2.90878e-012
0.00160028
1.19638e-012
0.0063849
1.50813e-012
0.0212712
7.62057e-013
0.0599775
8.19345e-013
0.141833
-3.92131e-013
0.285313
-5.22693e-013
0.48683
8.49099e-013
0.709319
-6.83897e-014
0.913568
7.91811e-013
1.08231
1.05693e-013
1.20387
-5.08038e-013
1.29442
-6.58362e-013
1.36706
-6.49703e-013
1.39364
-6.07292e-013
1.39571
-3.94129e-013
1.4232
-2.72005e-014
1.44732
1.95399e-013
1.43877
3.53606e-013
1.42427
3.33844e-013
1.41642
9.98757e-013
1.35336
1.10412e-012
1.20328
5.12701e-013
1.07325
7.45515e-013
0.98452
1.31195e-012
0.92569
1.70086e-013
0.888936
4.76841e-013
0.839348
1.33216e-012
0.828144
1.13554e-012
0.818483
1.73395e-012
0.809044
4.84945e-013
0.795495
-5.36238e-013
0.761617
-1.20859e-012
0.660161
-9.43301e-013
0.246489
-2.19641e-012
0.0607931
5.83977e-014
0.0108777
6.47815e-014
0.00192921
-7.99361e-015
0.000345671
1.34337e-014
6.39704e-005
-3.66096e-014
1.22522e-005
1.3628e-014
2.42422e-006
5.09592e-014
4.956e-007
7.41907e-014
1.04712e-007
5.46507e-014
2.2862e-008
1.15519e-013
5.16571e-009
-6.84647e-013
1.1809e-009
1.71585e-013
-6.49446e-012
3.66339e-014
1.70264e-012
1.15716e-013
-1.08713e-012
8.21349e-013
1.30829e-012
7.89515e-012
-4.01457e-013
8.20867e-011
-1.33404e-012
7.01071e-010
-2.11653e-012
6.18125e-009
-2.13074e-012
4.57936e-008
-2.74358e-012
3.39012e-007
-1.1191e-013
2.15129e-006
4.76064e-013
1.31992e-005
5.31308e-012
7.05616e-005
3.89022e-013
0.000352371
2.77112e-012
0.00154857
1.42908e-012
0.00617859
1.55609e-012
0.0205839
3.25961e-013
0.0580395
8.25118e-013
0.13725
-1.9984e-013
0.276094
-9.59677e-013
0.471099
1.27853e-012
0.686399
1.1191e-013
0.884049
9.63674e-013
1.04734
8.21565e-014
1.16497
-5.31797e-013
1.25259
-7.38964e-013
1.32289
-6.44595e-013
1.34861
-7.85594e-013
1.35061
-4.84723e-013
1.37721
1.29008e-013
1.40056
2.03282e-013
1.39228
2.50244e-013
1.37825
2.8233e-013
1.37065
1.2037e-012
1.30963
1.30174e-012
1.1644
8.19234e-013
1.03857
1.22791e-012
0.952708
1.42653e-012
0.895779
2.63456e-013
0.860212
5.53779e-013
0.812227
1.58185e-012
0.801384
1.17428e-012
0.792036
2.25875e-012
0.782902
6.85008e-013
0.76979
-6.86118e-013
0.737007
-1.70031e-012
0.63883
-2.16827e-012
0.238524
-3.40705e-012
0.0588287
6.60583e-015
0.0105262
3.42781e-014
0.00186688
2.7478e-015
0.000334502
4.80171e-015
6.19034e-005
-4.10505e-014
1.18564e-005
1.75138e-014
2.34589e-006
3.71647e-014
4.79587e-007
8.24896e-014
1.01328e-007
5.02098e-014
2.21233e-008
1.42109e-013
4.99878e-009
-8.32584e-013
1.1427e-009
2.69201e-013
-8.05191e-012
3.10021e-014
8.98837e-013
1.09765e-013
-1.32694e-012
7.93297e-013
6.42153e-013
7.63792e-012
-1.40066e-012
7.94337e-011
-1.36691e-012
6.78418e-010
-2.15028e-012
5.98152e-009
-2.20801e-012
4.43139e-008
-2.69029e-012
3.28058e-007
-5.21361e-013
2.08178e-006
8.2423e-013
1.27727e-005
5.19496e-012
6.82816e-005
3.62377e-013
0.000340985
2.51088e-012
0.00149853
1.50902e-012
0.00597895
1.18128e-012
0.0199188
3.20632e-013
0.0561641
1.00986e-012
0.132815
-2.18936e-013
0.267173
-7.363e-013
0.455877
1.2661e-012
0.66422
3.31735e-013
0.855483
1.43441e-012
1.0135
7.10543e-015
1.12733
-4.4853e-013
1.21212
-9.70335e-013
1.28015
-8.55982e-013
1.30503
-8.05134e-013
1.30697
-5.89306e-013
1.33271
9.90319e-014
1.3553
2.76112e-013
1.34729
2.92433e-013
1.33372
2.73337e-013
1.32636
1.31506e-012
1.26732
1.48681e-012
1.12677
8.58869e-013
1.00501
1.36713e-012
0.921924
1.35325e-012
0.866835
3.74922e-013
0.832417
4.86056e-013
0.785982
1.8846e-012
0.77549
1.28142e-012
0.766444
2.4446e-012
0.757605
7.88924e-013
0.744917
-6.18727e-013
0.713193
-1.78579e-012
0.618188
-2.77711e-012
0.230817
-3.61572e-012
0.0569278
-2.24265e-014
0.0101861
2.75613e-014
0.00180655
7.74381e-015
0.000323693
-2.96985e-015
5.99032e-005
-3.80529e-014
1.14732e-005
1.57374e-014
2.27009e-006
4.13836e-014
4.6409e-007
1.04611e-013
9.8054e-008
4.65461e-014
2.14084e-008
1.48409e-013
4.83724e-009
-1.00628e-012
1.10573e-009
4.17194e-013
-9.87743e-012
3.34468e-014
6.51923e-013
1.07584e-013
-1.62359e-012
7.6834e-013
1.07914e-012
7.3924e-012
-2.12719e-012
7.68669e-011
-1.62714e-012
6.56496e-010
-2.19025e-012
5.78825e-009
-2.27729e-012
4.28821e-008
-2.16804e-012
3.17458e-007
-1.23457e-012
2.01451e-006
1.14042e-012
1.23599e-005
5.07949e-012
6.60752e-005
2.52243e-013
0.000329967
2.27995e-012
0.00145011
1.48059e-012
0.00578576
8.21565e-013
0.0192752
3.25961e-013
0.0543493
1.40687e-012
0.128523
-3.37508e-013
0.25854
-9.2415e-013
0.441147
1.24389e-012
0.642758
7.50067e-013
0.827841
1.16485e-012
0.980748
1.9984e-013
1.0909
-1.75415e-013
1.17295
-9.06608e-013
1.23878
-9.68114e-013
1.26286
-7.90257e-013
1.26474
-4.19664e-013
1.28965
-8.43769e-015
1.31151
4.14557e-013
1.30376
2.41696e-013
1.29062
3.23852e-013
1.2835
1.2218e-012
1.22637
1.42975e-012
1.09036
8.93285e-013
0.972537
1.36591e-012
0.892135
1.13443e-012
0.838826
4.40314e-013
0.80552
2.64788e-013
0.760585
2.17359e-012
0.750432
1.40643e-012
0.741679