/*--------------------------------*- C++ -*----------------------------------*\
| =========                 |                                                 |
| \\      /  F ield         | OpenFOAM: The Open Source CFD Toolbox           |
|  \\    /   O peration     | Version:  5.x                                   |
|   \\  /    A nd           | Web:      www.OpenFOAM.org                      |
|    \\/     M anipulation  |                                                 |
\*---------------------------------------------------------------------------*/
/*   Windows 32 and 64 bit porting by blueCAPE: http://www.bluecape.com.pt   *\
|  Based on Windows porting (2.0.x v4) by Symscape: http://www.symscape.com   |
\*---------------------------------------------------------------------------*/
FoamFile
{
    version     2.0;
    format      ascii;
    class       surfaceScalarField;
    location    "0.003";
    object      phi_0;
}
// * * * * * * * * * * * * * * * * * * * * * * * * * * * * * * * * * * * * * //

dimensions      [1 0 -1 0 0 0 0];

internalField   nonuniform List<scalar> 
19740
(
6.98252e-014
6.98108e-013
2.01419e-013
-4.44089e-015
1.47685e-012
-1.83187e-012
1.41732e-011
1.84519e-012
1.47176e-010
1.0778e-012
1.25719e-009
-1.01519e-012
1.10893e-008
1.21947e-012
8.21817e-008
-5.3646e-013
6.08652e-007
2.61569e-013
3.86369e-006
1.2963e-012
2.37156e-005
4.11227e-013
0.000126827
-3.09974e-013
0.000633623
4.45421e-013
0.00278575
-1.33937e-012
0.0111198
4.17888e-013
0.0370674
1.10045e-012
0.104575
8.2867e-013
0.247429
4.53859e-013
0.497948
-4.66516e-013
0.850042
-2.20046e-013
1.23899
3.16858e-013
1.59617
-2.80886e-013
1.8913
-4.4853e-014
2.10392
9.81437e-014
2.26232
1.22125e-013
2.38934
-3.57048e-013
2.43579
1.01363e-013
2.43946
-5.77316e-015
2.48763
7.80487e-014
2.52971
8.81517e-014
2.51465
1.17906e-013
2.48939
2.33147e-015
2.47565
-2.18159e-014
2.36524
-2.83107e-014
2.10309
-9.80882e-014
1.87569
1.50435e-014
1.72065
2.90934e-013
1.61791
1.67144e-013
1.54948
6.42264e-014
1.4668
-9.4702e-014
1.44733
-1.50213e-013
1.43044
-1.46327e-013
1.41387
-2.68785e-013
1.39014
-4.78728e-013
1.33082
-7.80764e-013
1.15278
-1.31961e-012
0.423295
-9.36778e-013
0.10502
-1.16004e-013
0.0187625
1.60705e-014
0.00332586
4.45061e-014
0.000596012
1.23512e-014
0.000110309
-1.92207e-014
2.11295e-005
-2.49106e-014
4.1811e-006
-5.62467e-014
8.54858e-007
-2.37588e-014
1.80635e-007
9.15934e-016
3.94428e-008
3.78031e-014
8.91325e-009
2.65343e-014
2.03805e-009
4.25771e-014
-9.71445e-017
6.81252e-014
1.40155e-012
1.90676e-013
2.93987e-013
1.42935e-012
3.89466e-013
1.37164e-011
2.31815e-012
1.42421e-010
9.35696e-013
1.21656e-009
-2.31504e-012
1.0731e-008
1.58762e-012
7.95263e-008
-1.11822e-012
5.88985e-007
6.11955e-013
3.73884e-006
1.00409e-012
2.29493e-005
1.95399e-013
0.000122729
-2.22489e-013
0.00061315
4.47642e-013
0.00269574
-1.20481e-012
0.0107605
3.74811e-013
0.0358697
1.19105e-012
0.101196
1.4615e-012
0.239434
9.44134e-013
0.481858
-3.79696e-013
0.822576
-8.9817e-013
1.19895
-6.67688e-013
1.5446
-1.10134e-013
1.83019
7.17204e-014
2.03594
2.34701e-013
2.18922
1.93845e-013
2.31214
-7.85927e-013
2.35708
-8.83738e-014
2.36064
-1.76192e-013
2.40725
-1.11355e-013
2.44797
-2.72005e-014
2.43339
1.71529e-013
2.40896
1.34781e-013
2.39565
1.11522e-013
2.28881
1.04083e-013
2.03513
-2.9754e-014
1.81509
-4.02456e-014
1.66505
3.73479e-013
1.56563
3.31069e-013
1.49941
2.09777e-013
1.41941
9.4702e-014
1.40057
4.9738e-014
1.38422
2.01561e-013
1.36818
1.11244e-013
1.34522
-9.34253e-014
1.28782
-3.19134e-013
1.11553
-6.02685e-013
0.409617
-5.73569e-013
0.101627
-1.9873e-014
0.0181562
3.35426e-014
0.00321839
4.58383e-014
0.000576753
3.49165e-014
0.000106744
-2.08861e-014
2.04468e-005
5.31519e-015
4.046e-006
-7.27751e-014
8.27236e-007
-3.52079e-014
1.74798e-007
2.21489e-014
3.81683e-008
4.04121e-014
8.62524e-009
2.17049e-014
1.9722e-009
4.97241e-014
-1.29619e-014
6.21204e-014
1.25677e-012
1.91804e-013
1.31983e-012
1.38952e-012
2.23421e-012
1.32706e-011
6.28386e-013
1.37814e-010
5.57776e-013
1.17725e-009
-2.48557e-012
1.03842e-008
1.36824e-012
7.69566e-008
-1.05871e-012
5.69954e-007
1.00941e-012
3.61803e-006
1.42331e-012
2.22077e-005
6.49258e-013
0.000118764
5.37348e-014
0.000593337
1.9984e-013
0.00260863
-1.32783e-012
0.0104128
2.63345e-013
0.0347107
2.21378e-012
0.0979257
1.97753e-012
0.231697
1.32783e-012
0.466288
-6.14175e-013
0.795997
-7.69829e-013
1.16021
-6.77236e-013
1.49469
-2.09388e-013
1.77105
-1.46771e-013
1.97016
1.82299e-013
2.11848
6.9611e-014
2.23743
-6.80456e-013
2.28092
-8.80407e-014
2.28436
7.88258e-015
2.32947
-1.99063e-013
2.36887
-1.33005e-013
2.35477
1.4011e-013
2.33112
3.94684e-014
2.31824
-3.24185e-014
2.21486
-1.33227e-014
1.96937
-5.69544e-014
1.75644
-1.37557e-013
1.61125
3.29403e-013
1.51505
2.81997e-013
1.45096
5.16809e-014
1.37355
3.29237e-013
1.35531
2.20213e-013
1.33949
5.91804e-013
1.32398
6.4071e-013
1.30176
5.53169e-013
1.24621
6.28442e-013
1.07949
7.49123e-013
0.396382
8.13294e-013
0.098343
5.63438e-014
0.0175695
5.79953e-014
0.0031144
5.68295e-014
0.000558117
3.28487e-014
0.000103295
-4.93772e-014
1.97861e-005
2.05808e-014
3.91527e-006
-6.16451e-014
8.00506e-007
-1.01863e-014
1.6915e-007
-5.23193e-015
3.6935e-008
6.01047e-014
8.34654e-009
1.83326e-014
1.90847e-009
4.97796e-014
-5.04874e-014
6.15211e-014
4.73843e-013
1.77512e-013
1.3225e-012
1.33662e-012
2.30349e-012
1.28391e-011
1.50857e-012
1.33364e-010
1.116e-012
1.13922e-009
-3.45635e-012
1.00487e-008
7.46958e-013
7.447e-008
-2.15827e-013
5.51537e-007
1.77325e-012
3.50113e-006
2.11209e-012
2.14901e-005
1.88827e-012
0.000114926
2.46914e-013
0.000574165
2.77112e-013
0.00252434
-1.51079e-012
0.0100764
7.50955e-013
0.0335891
2.85949e-012
0.0947615
2.57794e-012
0.224211
1.42109e-012
0.451221
-2.88658e-013
0.770276
-7.15428e-013
1.12272
-8.18901e-013
1.44639
-3.12417e-013
1.71383
-4.41869e-013
1.9065
9.63674e-014
2.05003
9.12603e-014
2.16513
-1.42553e-013
2.20722
-1.44329e-013
2.21055
2.00062e-013
2.2542
-1.18239e-013
2.29233
-6.03961e-014
2.27868
-5.82867e-014
2.25579
-3.9968e-014
2.24334
3.84692e-014
2.14329
-1.83742e-014
1.90574
-2.01672e-013
1.69968
-1.7697e-013
1.55919
2.50466e-013
1.46609
3.64708e-014
1.40408
-2.52798e-013
1.32916
2.09832e-013
1.31152
2.3137e-013
1.29621
4.31155e-013
1.28119
3.89633e-013
1.25969
3.99902e-013
1.20594
4.91329e-013
1.04461
5.80869e-013
0.383574
1.02948e-012
0.0951653
8.77076e-014
0.0170018
8.34194e-014
0.00301377
3.73868e-014
0.000540083
2.73531e-014
9.99576e-005
-5.92443e-014
1.91468e-005
2.17881e-014
3.78876e-006
-3.96488e-014
7.7464e-007
1.70836e-014
1.63685e-007
1.46272e-014
3.57416e-008
4.73371e-014
8.07684e-009
3.99958e-014
1.8468e-009
3.18773e-014
-8.89289e-014
6.03007e-014
9.14824e-013
1.80514e-013
1.34692e-012
1.30027e-012
2.43672e-012
1.24232e-011
1.80655e-012
1.2905e-010
7.38076e-013
1.10241e-009
-4.34097e-012
9.72398e-009
8.64642e-013
7.20637e-008
6.37268e-013
5.33716e-007
2.61702e-012
3.388e-006
2.33324e-012
2.07957e-005
2.96296e-012
0.000111213
4.88942e-013
0.000555613
8.12683e-014
0.00244278
-1.55387e-012
0.00975077
1.46638e-012
0.0325038
2.75913e-012
0.0916996
3.39639e-012
0.216966
1.51168e-012
0.436641
-7.83373e-013
0.745387
-3.02869e-013
1.08644
-9.76552e-013
1.39966
-5.56e-013
1.65845
-1.34115e-013
1.84489
5.77316e-014
1.98378
2.37588e-013
2.09517
-3.11973e-014
2.1359
1.04139e-013
2.13912
2.25264e-013
2.18136
-1.28342e-013
2.21826
-1.57541e-013
2.20505
-1.31006e-014
2.1829
5.25135e-014
2.17085
1.64591e-013
2.07404
7.17759e-014
1.84416
-1.91014e-013
1.64476
-2.70339e-014
1.50881
1.1402e-013
1.41872
-3.30458e-013
1.35871
-5.19362e-013
1.28621
4.95715e-014
1.26914
6.16174e-014
1.25432
-3.16969e-014
1.2398
-1.8463e-013
1.21899
-3.1769e-013
1.16697
-4.87277e-013
1.01085
-9.7361e-013
0.37118
-1.22458e-013
0.0920903
-4.29379e-014
0.0164525
5.7912e-014
0.00291639
-1.71113e-014
0.000522632
4.38816e-014
9.67278e-005
-6.49203e-014
1.85281e-005
3.61933e-014
3.66634e-006
4.85723e-016
7.4961e-007
4.28685e-014
1.58396e-007
2.55629e-014
3.45867e-008
2.29539e-014
7.81587e-009
5.13339e-014
1.78713e-009
2.45637e-014
-1.49394e-013
5.95678e-014
1.74571e-012
1.67593e-013
3.41949e-013
1.25225e-012
2.89591e-012
1.20165e-011
1.40021e-012
1.24879e-010
5.20473e-013
1.06679e-009
-4.18776e-012
9.40979e-009
3.93907e-013
6.97352e-008
1.16795e-012
5.16471e-007
2.82752e-012
3.27852e-006
2.4345e-012
2.01238e-005
3.10463e-012
0.000107619
8.69971e-013
0.00053766
1.55431e-014
0.00236384
-1.2772e-012
0.00943571
2.39408e-012
0.0314535
3.26894e-012
0.0887366
2.61036e-012
0.209955
1.67644e-012
0.422533
-3.08642e-013
0.721302
-4.92495e-013
1.05134
-8.96172e-013
1.35443
-4.92495e-013
1.60486
-2.20934e-013
1.78528
1.52323e-013
1.91968
4.66072e-013
2.02747
-4.46643e-013
2.06688
-1.48104e-013
2.07
1.63425e-013
2.11088
-1.85407e-013
2.14658
-1.83742e-013
2.1338
3.67484e-014
2.11237
2.58571e-013
2.10071
4.71623e-013
2.00702
3.76033e-013
1.78457
6.40599e-014
1.59162
1.46605e-013
1.46006
-4.4742e-014
1.37288
-5.75817e-013
1.31481
-6.17728e-013
1.24465
-4.78506e-014
1.22813
7.31637e-014
1.21379
-4.03011e-013
1.19974
-4.62297e-013
1.1796
-7.29361e-013
1.12926
-9.79994e-013
0.978189
-1.65318e-012
0.359186
-1.00675e-012
0.0891147
-1.96038e-013
0.0159209
2.3509e-014
0.00282215
-6.94028e-014
0.000505745
1.95122e-014
9.36023e-005
-4.67543e-014
1.79294e-005
2.95458e-014
3.54787e-006
2.38004e-014
7.25389e-007
2.96985e-014
1.53278e-007
4.38261e-014
3.34691e-008
-4.28824e-015
7.56332e-009
3.7817e-014
1.72938e-009
2.27041e-014
-2.42223e-013
5.69865e-014
2.66631e-012
1.69607e-013
-3.41061e-013
1.21596e-012
3.08154e-012
1.16293e-011
9.73444e-013
1.20842e-010
2.84661e-013
1.03232e-009
-3.91598e-012
9.10574e-009
5.26246e-013
6.74819e-008
9.02833e-013
4.99782e-007
3.08331e-012
3.17259e-006
1.56541e-012
1.94736e-005
3.40483e-012
0.000104142
9.57012e-013
0.000520287
-3.25517e-013
0.00228746
-8.2423e-013
0.00913082
3.02736e-012
0.0304372
3.03979e-012
0.0858693
2.08722e-012
0.203171
1.69065e-012
0.40888
9.50351e-014
0.697995
-3.16636e-013
1.01737
-6.20837e-013
1.31067
-9.9698e-014
1.553
-4.31877e-013
1.7276
2.10498e-013
1.85766
9.57012e-014
1.96196
-1.43663e-013
2.0001
-2.89324e-013
2.00312
1.29341e-013
2.04267
-1.05915e-013
2.07722
-2.66565e-013
2.06485
9.32587e-014
2.04411
5.88196e-013
2.03283
8.91731e-013
1.94217
7.75047e-013
1.72691
3.2363e-013
1.54019
2.77056e-013
1.41288
-3.57492e-014
1.32852
-5.52836e-013
1.27232
-3.78697e-013
1.20444
-5.66214e-015
1.18845
1.69642e-013
1.17457
-4.2133e-013
1.16097
-3.66762e-013
1.14149
-4.48253e-013
1.09278
-5.09925e-013
0.946582
-6.68687e-013
0.34758
-4.16056e-013
0.0862352
-1.51962e-013
0.0154064
-2.294e-014
0.00273096
-4.89608e-014
0.000489403
-2.98372e-015
9.05778e-005
-2.43139e-014
1.73501e-005
3.17801e-014
3.43323e-006
1.67505e-014
7.0195e-007
4.11476e-014
1.48325e-007
3.02675e-014
3.23877e-008
9.11771e-015
7.31893e-009
1.81799e-014
1.67349e-009
1.48631e-014
-3.36467e-013
5.4551e-014
1.72307e-012
1.59222e-013
-3.33067e-013
1.17189e-012
2.39808e-012
1.12473e-011
-1.1946e-013
1.16934e-010
5.28466e-013
9.98968e-010
-3.10951e-012
8.81152e-009
1.19149e-012
6.53014e-008
1.15596e-012
4.83633e-007
3.336e-012
3.07008e-006
7.94476e-013
1.88443e-005
3.72591e-012
0.000100777
1.24656e-012
0.000503475
1.4877e-013
0.00221355
-7.2431e-013
0.00883578
3.56737e-012
0.0294537
2.48068e-012
0.0830947
1.92379e-012
0.196606
1.72395e-012
0.395668
2.2915e-013
0.675441
-1.79412e-013
0.984495
-8.35998e-013
1.26832
2.82663e-013
1.50282
-2.8666e-013
1.67177
1.70974e-013
1.79763
8.26006e-014
1.89856
-1.82077e-013
1.93547
-1.51212e-013
1.93839
-7.70495e-014
1.97667
-2.89768e-013
2.0101
-1.31894e-013
1.99813
1.9984e-013
1.97806
8.85736e-013
1.96714
1.21303e-012
1.87941
1.15319e-012
1.67111
7.33191e-013
1.49042
5.30131e-013
1.36722
6.33382e-014
1.28559
-2.81219e-013
1.23121
2.33036e-013
1.16552
2.03615e-013
1.15005
3.01537e-013
1.13662
-3.33955e-013
1.12346
-2.01172e-013
1.1046
-1.16962e-013
1.05747
7.52176e-014
0.915996
4.57245e-013
0.336349
7.70606e-013
0.0834488
-5.35405e-014
0.0149086
-2.94348e-014
0.00264272
-2.25792e-014
0.000473589
-3.26406e-014
8.76511e-005
-3.60822e-014
1.67895e-005
3.57631e-014
3.3223e-006
2.82274e-014
6.79268e-007
4.28269e-014
1.43532e-007
4.36318e-014
3.13411e-008
2.88242e-014
7.08244e-009
8.18789e-015
1.61941e-009
-6.30052e-015
-4.59924e-013
5.16887e-014
1.81188e-013
1.5942e-013
-6.64357e-013
1.13692e-012
1.43618e-012
1.08869e-011
-2.02505e-013
1.13157e-010
1.19948e-012
9.66688e-010
-2.66676e-012
8.5268e-009
1.52411e-012
6.31914e-008
1.57252e-012
4.68006e-007
2.67697e-012
2.97088e-006
5.01821e-014
1.82354e-005
4.06741e-012
9.75205e-005
1.85008e-012
0.000487207
6.07958e-013
0.00214203
-7.2431e-013
0.00855028
3.92797e-012
0.028502
1.91802e-012
0.0804097
1.54987e-012
0.190254
1.57208e-012
0.382883
4.96048e-013
0.653616
-1.59872e-013
0.952684
-1.15374e-012
1.22733
7.08544e-013
1.45426
-3.93241e-013
1.61775
-4.88498e-014
1.73955
1.27454e-013
1.83722
-3.06644e-013
1.87293
-1.89404e-013
1.87576
-1.90736e-013
1.9128
-2.42029e-013
1.94515
-1.4877e-013
1.93357
2.25153e-013
1.91415
9.97868e-013
1.90358
1.34648e-012
1.81869
1.20481e-012
1.61711
9.46576e-013
1.44226
7.4496e-013
1.32305
1.54987e-013
1.24405
3.40117e-013
1.19143
1.10001e-012
1.12786
6.60638e-013
1.11289
5.8431e-013
1.09989
-2.93321e-013
1.08716
-2.23821e-013
1.06891
-2.25708e-013
1.0233
-7.81597e-014
0.886398
4.95937e-013
0.325481
1.14037e-012
0.0807524
1.99285e-014
0.0144269
-1.41276e-014
0.00255733
-1.8055e-014
0.000458287
-3.47361e-014
8.48189e-005
-4.38677e-014
1.6247e-005
3.67761e-014
3.21494e-006
4.30767e-014
6.5732e-007
4.94188e-014
1.38894e-007
5.67046e-014
3.03284e-008
6.2006e-014
6.85359e-009
-2.29122e-014
1.56708e-009
-1.1588e-014
-6.27345e-013
5.10651e-014
3.8991e-013
1.49477e-013
-6.35936e-013
1.0975e-012
1.58629e-012
1.05297e-011
-1.15197e-012
1.09498e-010
1.68576e-012
9.35456e-010
-1.94111e-012
8.25128e-009
1.27676e-012
6.11495e-008
1.02141e-012
4.52884e-007
2.24043e-012
2.87488e-006
-1.70974e-013
1.76462e-005
4.64384e-012
9.43694e-005
1.80211e-012
0.000471464
6.62581e-013
0.00207281
-7.776e-013
0.008274
3.67439e-012
0.027581
1.60894e-012
0.0778115
1.27942e-012
0.184106
1.50235e-012
0.370511
8.68638e-013
0.632497
-4.98712e-013
0.921901
-8.54428e-013
1.18768
3.08864e-013
1.40727
-1.94067e-013
1.56548
-1.82743e-013
1.68334
5.30687e-014
1.77785
-2.07612e-013
1.81241
-4.83835e-013
1.81515
-1.90958e-013
1.85099
-1.20015e-013
1.8823
-1.32117e-014
1.87109
1.97287e-013
1.8523
9.59788e-013
1.84207
1.14664e-012
1.75992
1.01286e-012
1.56486
1.01252e-012
1.39566
8.54428e-013
1.2803
2.51243e-013
1.20385
1.11433e-012
1.15293
2.11287e-012
1.09142
1.39255e-012
1.07693
9.73777e-013
1.06435
-1.68587e-013
1.05203
-4.3765e-013
1.03437
-7.55673e-013
0.990232
-1.17106e-012
0.857756
-1.17456e-012
0.314964
1.4988e-015
0.0781431
7.29139e-014
0.0139607
2.06501e-014
0.00247469
-4.73233e-015
0.000443478
-4.07313e-014
8.20782e-005
-6.43235e-014
1.5722e-005
1.78885e-014
3.11106e-006
4.58938e-014
6.3608e-007
6.65579e-014
1.34406e-007
4.80171e-014
2.93485e-008
7.39686e-014
6.63213e-009
-7.09433e-014
1.51644e-009
-6.245e-015
-8.5007e-013
4.91287e-014
4.22773e-013
1.50299e-013
2.36255e-013
1.06534e-012
1.79678e-012
1.01931e-011
-1.25322e-012
1.05962e-010
1.84652e-012
9.05228e-010
-2.33413e-012
7.98466e-009
8.64642e-013
5.91737e-008
3.71703e-013
4.3825e-007
1.87139e-012
2.78199e-006
-4.49418e-013
1.7076e-005
4.3423e-012
9.13201e-005
1.09379e-012
0.00045623
7.73159e-013
0.00200584
-4.01457e-013
0.00800665
3.31379e-012
0.0266898
1.77991e-012
0.0752973
1.19593e-012
0.178157
1.00187e-012
0.358539
3.96128e-013
0.612059
-3.53939e-013
0.892112
-1.47615e-012
1.1493
5.05818e-013
1.3618
-2.22933e-013
1.5149
-7.66054e-014
1.62895
1.0747e-013
1.72041
-3.20188e-013
1.75385
-4.83169e-013
1.7565
-3.46945e-013
1.79118
-1.86962e-013
1.82148
-5.00711e-014
1.81063
7.80487e-014
1.79245
5.61995e-013
1.78255
7.35634e-013
1.70305
6.42042e-013
1.5143
8.83849e-013
1.35056
7.67941e-013
1.23893
4.07452e-013
1.16495
1.70708e-012
1.11568
2.77744e-012
1.05615
2.10282e-012
1.04213
1.43535e-012
1.02996
5.4956e-015
1.01803
-6.12177e-013
1.00095
-1.33193e-012
0.958236
-2.35895e-012
0.830041
-3.07543e-012
0.304787
-1.76437e-012
0.0756181
-1.06248e-013
0.0135096
1.94011e-014
0.00239473
2.90046e-014
0.000429149
-2.25236e-014
7.94261e-005
-4.88498e-014
1.5214e-005
-1.55431e-015
3.01054e-006
4.07036e-014
6.15527e-007
8.59868e-014
1.30063e-007
3.83166e-014
2.84002e-008
7.39825e-014
6.41783e-009
-1.14991e-013
1.46743e-009
-8.16014e-015
-1.11489e-012
4.71914e-014
1.21414e-012
1.39948e-013
-2.62013e-013
1.02707e-012
1.97797e-012
9.86006e-012
-7.39853e-013
1.02536e-010
2.12541e-012
8.75981e-010
-2.69385e-012
7.72667e-009
6.61693e-013
5.72616e-008
1.53655e-013
4.24089e-007
1.61249e-012
2.69209e-006
-4.17888e-013
1.65242e-005
4.74909e-012
8.83694e-005
4.67626e-013
0.000441489
1.4122e-012
0.00194102
4.57412e-014
0.00774794
2.65254e-012
0.0258274
2.25775e-012
0.0728643
1.35714e-012
0.172401
6.3638e-013
0.346954
1.82077e-013
0.592283
6.79456e-014
0.863286
-9.42801e-013
1.11216
8.63087e-013
1.3178
-5.17364e-013
1.46595
-8.61533e-014
1.57631
-8.50431e-014
1.66482
-2.3137e-013
1.69718
-3.01759e-013
1.69974
-2.46247e-013
1.7333
-1.57097e-013
1.76262
-9.21485e-014
1.75213
9.00391e-014
1.73453
3.38285e-013
1.72495
5.50671e-013
1.64802
4.93383e-013
1.46537
7.77378e-013
1.30692
4.68958e-013
1.19889
5.19806e-013
1.12731
2.09943e-012
1.07963
2.99849e-012
1.02202
2.67131e-012
1.00846
2.02766e-012
0.996682
1.3195e-013
0.985139
-6.29552e-013
0.968607
-1.56203e-012
0.927273
-2.92155e-012
0.80322
-4.0839e-012
0.294939
-2.57228e-012
0.0731748
-2.00479e-013
0.0130731
-1.87628e-014
0.00231735
2.16216e-014
0.000415282
-1.58207e-015
7.68596e-005
-5.32629e-014
1.47224e-005
-1.06581e-014
2.91326e-006
2.67009e-014
5.95638e-007
8.88872e-014
1.25861e-007
3.40145e-014
2.74825e-008
6.72795e-014
6.21045e-009
-1.73542e-013
1.42e-009
-5.55112e-016
-1.46833e-012
4.71697e-014
1.62892e-012
1.41e-013
-9.13936e-013
9.97021e-013
1.91136e-012
9.54396e-012
-9.71667e-013
9.92234e-011
1.10489e-012
8.47674e-010
-2.74802e-012
7.477e-009
3.22409e-013
5.54114e-008
3.12639e-013
4.10386e-007
1.27631e-012
2.60511e-006
6.21725e-015
1.59903e-005
5.40457e-012
8.5514e-005
3.70814e-013
0.000427223
1.78213e-012
0.0018783
3.9746e-013
0.00749759
2.47224e-012
0.0249929
1.63913e-012
0.0705099
1.56097e-012
0.16683
3.57936e-013
0.335743
2.28706e-013
0.573145
2.54019e-013
0.835392
-6.28386e-013
1.07623
1.26654e-012
1.27522
-4.20108e-013
1.41858
-1.56319e-013
1.52538
3.33067e-014
1.61102
-1.49658e-013
1.64234
-2.12497e-013
1.64482
-1.4222e-013
1.6773
-1.68754e-014
1.70567
1.38778e-014
1.69551
1.09135e-013
1.67848
3.36842e-013
1.66921
3.60156e-013
1.59477
3.68483e-013
1.41802
6.14842e-013
1.26469
2.57794e-013
1.16016
6.95888e-013
1.09088
2.10565e-012
1.04474
2.73448e-012
0.988999
2.88913e-012
0.975871
2.57472e-012
0.964477
2.65399e-013
0.953307
-3.8336e-013
0.937309
-1.39033e-012
0.897311
-2.70656e-012
0.777266
-3.73263e-012
0.285408
-2.3907e-012
0.0708103
-1.95483e-013
0.0126507
-1.20182e-014
0.00224247
3.40283e-014
0.000401863
1.6237e-014
7.43761e-005
-6.01741e-014
1.42467e-005
-2.32037e-014
2.81913e-006
4.49779e-014
5.76392e-007
8.20038e-014
1.21794e-007
3.59435e-014
2.65945e-008
6.09235e-014
6.00977e-009
-2.31176e-013
1.37411e-009
5.59275e-015
-1.91018e-012
4.23606e-014
2.33591e-012
1.31588e-013
-7.62057e-013
9.61873e-013
2.05258e-012
9.23226e-012
-1.91136e-012
9.60157e-011
-3.41061e-013
8.20286e-010
-2.67608e-012
7.23541e-009
-5.68434e-014
5.36209e-008
3.9968e-014
3.97126e-007
1.09956e-012
2.52093e-006
2.59348e-013
1.54736e-005
5.3495e-012
8.27508e-005
3.3884e-013
0.000413419
2.40341e-012
0.00181761
7.7538e-013
0.00725532
1.80567e-012
0.0241853
1.04583e-012
0.0682315
1.40021e-012
0.161439
2.55351e-013
0.324895
1.62537e-013
0.554625
4.10783e-013
0.808398
-8.5576e-013
1.04145
1.02496e-012
1.23401
-1.81855e-013
1.37274
1.24123e-013
1.47609
-9.34808e-014
1.55897
-2.49578e-013
1.58927
-2.11164e-013
1.59167
-1.22902e-013
1.6231
-5.71765e-014
1.65056
1.02918e-013
1.64073
8.13793e-014
1.62425
2.31926e-013
1.61528
3.85469e-013
1.54324
4.17444e-013
1.3722
5.19695e-013
1.22383
4.55191e-014
1.12267
8.45657e-013
1.05564
1.70963e-012
1.01099
1.99163e-012
0.957043
2.52365e-012
0.944338
2.64955e-012
0.933313
5.50671e-013
0.922504
1.43219e-014
0.907023
-9.33309e-013
0.868317
-1.97575e-012
0.752151
-2.46986e-012
0.276186
-1.52006e-012
0.0685223
-2.12746e-013
0.0122419
-1.11577e-014
0.00217002
3.25018e-014
0.000388878
2.21489e-014
7.19729e-005
-4.45477e-014
1.37863e-005
-3.2585e-014
2.72804e-006
5.89112e-014
5.57767e-007
6.44207e-014
1.17859e-007
4.43395e-014
2.57351e-008
5.46924e-014
5.81557e-009
-2.7546e-013
1.32969e-009
1.56125e-014
-2.48801e-012
4.3856e-014
2.51177e-012
1.31962e-013
-9.64562e-013
9.32372e-013
1.61915e-012
8.93613e-012
-1.34825e-012
9.29141e-011
-1.30562e-012
7.9378e-010
-2.68319e-012
7.00161e-009
-3.97904e-013
5.18883e-008
-6.19949e-013
3.84294e-007
1.16884e-012
2.43947e-006
4.15668e-013
1.49736e-005
5.63993e-012
8.0077e-005
1.15463e-013
0.00040006
3.00648e-012
0.00175888
1.47127e-012
0.00702089
1.51257e-012
0.0234038
1.0445e-012
0.0660268
1.01119e-012
0.156223
2.34479e-013
0.314397
-4.03677e-013
0.536704
4.15668e-013
0.782277
-9.05942e-013
1.0078
1.1271e-012
1.19414
-1.63203e-013
1.32839
1.70974e-014
1.42839
-2.19158e-013
1.50859
-2.21823e-013
1.53792
-2.03171e-013
1.54024
-1.108e-013
1.57065
-6.40599e-014
1.59722
1.58762e-013
1.58771
1.00142e-013
1.57177
1.88405e-013
1.56309
4.15445e-013
1.49338
4.66516e-013
1.32786
3.23519e-013
1.18428
-1.52434e-013
1.08639
8.96838e-013
1.02153
1.00531e-012
0.978319
1.1523e-012
0.926119
1.91069e-012
0.913825
2.17981e-012
0.903156
7.84262e-013
0.892696
4.62741e-013
0.877715
-3.29292e-013
0.84026
-1.06526e-012
0.727848
-9.61065e-013
0.267262
-6.72851e-013
0.0663082
-9.25371e-014
0.0118463
1.4988e-014
0.0020999
1.6237e-014
0.000376313
4.00513e-014
6.96473e-005
-3.93574e-014
1.33409e-005
-9.13158e-015
2.63989e-006
8.30724e-014
5.39745e-007
5.23748e-014
1.1405e-007
6.94583e-014
2.49036e-008
7.37604e-014
5.62765e-009
-3.37314e-013
1.28671e-009
3.89272e-014
-3.20002e-012
3.71305e-014
1.48148e-012
1.22789e-013
-7.0699e-013
8.98785e-013
1.8856e-012
8.64456e-012
-2.81553e-013
8.99113e-011
-1.57829e-012
7.68133e-010
-2.42562e-012
6.77538e-009
-1.08002e-012
5.02117e-008
-1.50546e-012
3.71876e-007
5.12479e-013
2.36065e-006
4.96492e-013
1.44898e-005
5.45519e-012
7.74895e-005
3.97016e-013
0.000387134
3.10063e-012
0.00170205
1.34603e-012
0.00679403
1.62359e-012
0.0226476
9.17932e-013
0.0638934
1.03917e-012
0.151175
-3.91243e-013
0.304238
-4.7562e-013
0.519362
-9.32587e-015
0.757
-3.84581e-013
0.975237
8.50431e-013
1.15555
-7.77156e-015
1.28546
-1.79412e-013
1.38224
-2.2693e-013
1.45985
-2.69562e-013
1.48823
-2.02505e-013
1.49047
-4.4853e-014
1.5199
1.03362e-013
1.54561
1.30451e-013
1.53641
2.25042e-013
1.52098
1.4666e-013
1.51258
4.3987e-013
1.44512
5.80536e-013
1.28495
2.42584e-013
1.14602
-1.53211e-013
1.05129
9.55236e-013
0.988518
4.76286e-013
0.946707
6.38267e-013
0.896194
1.43774e-012
0.884297
1.55032e-012
0.873973
9.32476e-013
0.863851
5.85421e-013
0.849354
-1.10245e-013
0.813109
-4.79727e-013
0.704329
2.66343e-013
0.258626
-4.3221e-013
0.0641656
-9.60343e-015
0.0114636
3.43892e-014
0.00203205
-6.63358e-015
0.000364153
3.5083e-014
6.73968e-005
-3.48332e-014
1.29098e-005
3.58047e-015
2.55459e-006
8.18789e-014
5.22305e-007
5.71487e-014
1.10365e-007
6.36713e-014
2.40989e-008
9.38555e-014
5.4458e-009
-4.36096e-013
1.24511e-009
6.84869e-014
-4.08372e-012
3.99195e-014
2.58549e-012
1.23802e-013
-2.39808e-014
8.71771e-013
2.11919e-012
8.3663e-012
-5.79981e-013
8.70061e-011
-1.39178e-012
7.43312e-010
-2.7347e-012
6.55645e-009
-1.57563e-012
4.85893e-008
-2.31992e-012
3.5986e-007
4.80505e-013
2.28437e-006
9.71667e-013
1.40216e-005
5.17186e-012
7.49857e-005
6.32383e-013
0.000374624
3.30669e-012
0.00164705
1.01874e-012
0.0065745
1.71996e-012
0.0219158
6.83897e-013
0.0618288
9.98313e-013
0.14629
-4.70735e-013
0.294407
-5.01377e-013
0.50258
1.86517e-013
0.73254
-1.77636e-014
0.943725
8.37552e-013
1.11822
-9.76996e-014
1.24393
-5.56222e-013
1.33758
-6.89448e-013
1.41268
-1.6942e-013
1.44014
-3.57936e-013
1.44231
-2.52909e-013
1.47079
8.92619e-014
1.49567
1.55653e-013
1.48676
3.47056e-013
1.47183
1.98952e-013
1.4637
6.38378e-013
1.39843
7.61613e-013
1.24343
2.75668e-013
1.10899
1.79745e-013
1.01732
1.11655e-012
0.956577
2.27818e-013
0.916117
4.27103e-013
0.867236
1.2681e-012
0.855724
1.19382e-012
0.845733
1.21547e-012
0.835938
4.9416e-013
0.82191
-2.10609e-013
0.786836
-5.29521e-013
0.681571
2.5141e-013
0.25027
-8.27727e-013
0.0620923
1.16851e-014
0.0110931
7.28306e-014
0.00196639
-2.18436e-014
0.000352387
2.49523e-014
6.52191e-005
-4.36595e-014
1.24926e-005
1.87073e-014
2.47204e-006
6.18117e-014
5.05428e-007
5.39846e-014
1.06799e-007
6.98608e-014
2.33202e-008
1.05846e-013
5.26983e-009
-5.51892e-013
1.20485e-009
9.44245e-014
-5.13285e-012
3.37222e-014
1.55431e-012
1.15563e-013
-8.8729e-013
8.4051e-013
1.87139e-012
8.09359e-012
-2.84217e-013
8.41942e-011
-1.40776e-012
7.19295e-010
-2.68052e-012
6.3446e-009
-1.84919e-012
4.70192e-008
-2.97007e-012
3.48232e-007
-2.04281e-014
2.21056e-006
8.5798e-013
1.35686e-005
5.24736e-012
7.25627e-005
3.98792e-013
0.00036252
2.93188e-012
0.00159383
1.19549e-012
0.00636206
1.52323e-012
0.0212077
7.52287e-013
0.059831
8.17124e-013
0.141563
-3.99236e-013
0.284894
-5.34239e-013
0.486341
8.71747e-013
0.70887
-4.79616e-014
0.913231
7.93587e-013
1.08208
9.76996e-014
1.20373
-5.03597e-013
1.29436
-6.58806e-013
1.36703
-6.41043e-013
1.39361
-6.0818e-013
1.39571
-3.92575e-013
1.42327
-3.26406e-014
1.44734
1.96954e-013
1.43872
3.5727e-013
1.42427
3.36065e-013
1.41641
9.92983e-013
1.35324
1.09168e-012
1.20326
5.00711e-013
1.07315
7.34413e-013
0.984448
1.30607e-012
0.925668
1.57985e-013
0.886516
4.68625e-013
0.839214
1.34737e-012
0.828073
1.13565e-012
0.818406
1.71518e-012
0.808927
4.89164e-013
0.795352
-5.17142e-013
0.761412
-1.16052e-012
0.659548
-8.44824e-013
0.242183
-2.1077e-012
0.060086
6.56142e-014
0.0107347
6.4504e-014
0.00190285
-8.32667e-015
0.000341
1.30451e-014
6.31117e-005
-3.63043e-014
1.2089e-005
1.45162e-014
2.39217e-006
5.02931e-014
4.89096e-007
7.35245e-014
1.03348e-007
5.48173e-014
2.25667e-008
1.1513e-013
5.09953e-009
-6.731e-013
1.16588e-009
1.69337e-013
-6.41071e-012
3.6584e-014
1.69909e-012
1.15157e-013
-1.0818e-012
8.14712e-013
1.30207e-012
7.83282e-012
-4.24549e-013
8.14733e-011
-1.42375e-012
6.96052e-010
-2.14495e-012
6.13959e-009
-2.13962e-012
4.54999e-008
-2.75424e-012
3.3698e-007
-7.01661e-014
2.13913e-006
4.71623e-013
1.31301e-005
5.35305e-012
7.02181e-005
4.11227e-013
0.000350806
2.78888e-012
0.00154233
1.42908e-012
0.00615649
1.54721e-012
0.0205224
3.33955e-013
0.0578977
8.57536e-013
0.136989
-2.13607e-013
0.275689
-9.69003e-013
0.470626
1.28431e-012
0.685965
1.22569e-013
0.883723
9.61453e-013
1.04712
8.74856e-014
1.16484
-5.278e-013
1.25253
-7.33191e-013
1.32286
-6.45484e-013
1.34858
-7.8848e-013
1.35061
-4.79838e-013
1.37728
1.29008e-013
1.40058
2.05613e-013
1.39224
2.48912e-013
1.37825
2.80775e-013
1.37064
1.20115e-012
1.30952
1.29941e-012
1.16438
8.15681e-013
1.03848
1.22236e-012
0.952639
1.42375e-012
0.895758
2.5735e-013
0.85787
5.48006e-013
0.812097
1.58296e-012
0.801317
1.17539e-012
0.791961
2.24343e-012
0.782789
6.74572e-013
0.769653
-6.8745e-013
0.736809
-1.68066e-012
0.638237
-2.11231e-012
0.234357
-3.3476e-012
0.0581445
1.25455e-014
0.0103878
3.39728e-014
0.00184136
2.41474e-015
0.000329982
4.71845e-015
6.10725e-005
-4.13836e-014
1.16984e-005
1.80966e-014
2.31487e-006
3.71925e-014
4.73293e-007
8.18512e-014
1.00009e-007
5.14311e-014
2.18375e-008
1.41498e-013
4.93474e-009
-8.2051e-013
1.12817e-009
2.66426e-013
-7.94971e-012
3.09583e-014
8.80185e-013
1.09212e-013
-1.32161e-012
7.86862e-013
6.2883e-013
7.57758e-012
-1.40865e-012
7.88401e-011
-1.41753e-012
6.73561e-010
-2.15383e-012
5.94121e-009
-2.22489e-012
4.40298e-008
-2.68319e-012
3.26092e-007
-5.13367e-013
2.07001e-006
8.19789e-013
1.27059e-005
5.23492e-012
6.79492e-005
3.74811e-013
0.00033947
2.55351e-012
0.0014925
1.5099e-012
0.00595756
1.19371e-012
0.0198593
3.48166e-013
0.0560269
1.01785e-012
0.132563
-2.1938e-013
0.266781
-7.53175e-013
0.455419
1.28253e-012
0.6638
3.41949e-013
0.855168
1.4353e-012
1.01329
1.37668e-014
1.1272
-4.54303e-013
1.21206
-9.69669e-013
1.28011
-8.60423e-013
1.305
-8.06244e-013
1.30697
-5.87086e-013
1.33278
1.03251e-013
1.35532
2.79998e-013
1.34725
2.89213e-013
1.33372
2.71005e-013
1.32635
1.32305e-012
1.2672
1.49203e-012
1.12675
8.65641e-013
1.00492
1.37801e-012
0.921857
1.36124e-012
0.866814
3.76033e-013
0.830151
4.8217e-013
0.785856
1.87572e-012
0.775424
1.27198e-012
0.766371
2.44316e-012
0.757495
7.78821e-013
0.744783
-6.29163e-013
0.713001
-1.79823e-012
0.617614
-2.7876e-012
0.226785
-3.62277e-012
0.0562657
-1.83187e-014
0.0100522
2.77556e-014
0.00178186
7.10543e-015
0.00031932
-2.10942e-015
5.90991e-005
-3.77476e-014
1.13204e-005
1.57374e-014
2.24007e-006
4.11338e-014
4.57999e-007
1.03584e-013
9.67772e-008
4.76286e-014
2.11319e-008
1.46716e-013
4.77527e-009
-9.90846e-013
1.09167e-009
4.13169e-013
-9.75228e-012
3.34199e-014
6.36824e-013
1.07044e-013
-1.62981e-012
7.62113e-013
1.05516e-012
7.334e-012
-2.10409e-012
7.62925e-011
-1.63336e-012
6.51797e-010
-2.19114e-012
5.74924e-009
-2.29061e-012
4.26071e-008
-2.16893e-012
3.15555e-007
-1.22924e-012
2.00313e-006
1.12177e-012
1.22953e-005
5.09903e-012
6.57536e-005
2.51354e-013
0.000328501
2.34834e-012
0.00144427
1.46727e-012
0.00576506
8.18012e-013
0.0192176
3.65041e-013
0.0542166
1.4273e-012
0.128279
-3.28626e-013
0.258161
-9.31699e-013
0.440704
1.22613e-012
0.642351
7.61613e-013
0.827535
1.16662e-012
0.980544
2.06501e-013
1.09078
-1.77636e-013
1.1729
-9.09939e-013
1.23875
-9.69891e-013
1.26283
-7.85372e-013
1.26474
-4.17222e-013
1.28971
-1.06581e-014
1.31153
4.17666e-013
1.30372
2.37477e-013
1.29062
3.20632e-013
1.2835
1.2349e-012
1.22626
1.44373e-012
1.09034
8.99836e-013
0.972451
1.38223e-012
0.89207
1.14564e-012
0.838806
4.44977e-013
0.803327
2.61346e-013
0.760464
2.16149e-012
0.750369
1.39122e-012
0.741608