/*--------------------------------*- C++ -*----------------------------------*\
| =========                 |                                                 |
| \\      /  F ield         | OpenFOAM: The Open Source CFD Toolbox           |
|  \\    /   O peration     | Version:  5.x                                   |
|   \\  /    A nd           | Web:      www.OpenFOAM.org                      |
|    \\/     M anipulation  |                                                 |
\*---------------------------------------------------------------------------*/
/*   Windows 32 and 64 bit porting by blueCAPE: http://www.bluecape.com.pt   *\
|  Based on Windows porting (2.0.x v4) by Symscape: http://www.symscape.com   |
\*---------------------------------------------------------------------------*/
FoamFile
{
    version     2.0;
    format      ascii;
    class       volVectorField;
    location    "0.003";
    object      U;
}
// * * * * * * * * * * * * * * * * * * * * * * * * * * * * * * * * * * * * * //

dimensions      [0 1 -1 0 0 0 0];

internalField   nonuniform List<vector> 
10000
(
(3.2905e-012 1.82467e-012 0)
(3.51147e-012 5.14947e-012 0)
(1.76965e-011 -4.37894e-012 0)
(1.38642e-010 4.70741e-013 0)
(1.35665e-009 6.59244e-013 0)
(1.41599e-008 -1.12047e-012 0)
(1.17833e-007 3.36402e-012 0)
(1.04531e-006 -7.79488e-013 0)
(7.5389e-006 1.83465e-012 0)
(5.59506e-005 1.73446e-012 0)
(0.000345411 1.39428e-012 0)
(0.00211344 6.27328e-014 0)
(0.01098 4.34142e-013 0)
(0.0542119 -2.16506e-012 0)
(0.229848 8.75906e-013 0)
(0.860719 1.7546e-012 0)
(2.68815 2.49279e-012 0)
(7.22946 2.88727e-012 0)
(16.5479 -3.03572e-012 0)
(32.5802 2.39298e-012 0)
(55.4754 4.45332e-012 0)
(82.5122 -2.07035e-012 0)
(111.476 -2.8343e-013 0)
(139.728 -1.26051e-013 0)
(166.639 3.62687e-013 0)
(191.558 6.66013e-013 0)
(214.861 3.87384e-012 0)
(235.151 2.74134e-012 0)
(252.161 1.72834e-012 0)
(266.701 3.38064e-013 0)
(277.133 3.45622e-013 0)
(284.364 -1.43894e-012 0)
(290.701 -2.85125e-012 0)
(296.366 -3.10786e-012 0)
(299.53 -2.85047e-012 0)
(299.292 1.54227e-014 0)
(296.57 3.36202e-012 0)
(292.725 2.0367e-012 0)
(288.646 -6.12831e-013 0)
(284.806 -1.90776e-012 0)
(281.991 -3.5852e-012 0)
(280.234 -4.15805e-012 0)
(278.585 -4.7922e-012 0)
(275.569 -8.70399e-012 0)
(268.129 -1.45986e-011 0)
(248.671 -2.87796e-011 0)
(189.311 -1.74887e-011 0)
(76.4832 -4.17404e-012 0)
(14.1489 5.3588e-013 0)
(2.48019 5.82984e-012 0)
(0.439289 4.31714e-012 0)
(0.0806692 2.52496e-013 0)
(0.0153495 -6.47197e-013 0)
(0.00301685 -3.21021e-012 0)
(0.000612567 5.48444e-013 0)
(0.000128528 -5.44639e-012 0)
(2.7863e-005 2.36516e-012 0)
(6.2395e-006 7.35368e-013 0)
(1.45768e-006 1.10824e-012 0)
(2.93769e-007 -2.70434e-012 0)
(3.63385e-012 8.64496e-013 0)
(3.25065e-012 -4.98815e-012 0)
(1.75133e-011 -2.67232e-012 0)
(1.38833e-010 7.21478e-012 0)
(1.35658e-009 3.97181e-012 0)
(1.41601e-008 -3.76683e-012 0)
(1.17833e-007 2.67728e-012 0)
(1.04531e-006 -1.68043e-012 0)
(7.5389e-006 -3.61021e-013 0)
(5.59506e-005 4.25417e-012 0)
(0.000345411 7.45534e-013 0)
(0.00211344 -1.77212e-012 0)
(0.01098 2.12174e-012 0)
(0.0542119 -4.873e-012 0)
(0.229848 1.4079e-012 0)
(0.860719 4.16177e-012 0)
(2.68815 2.5713e-012 0)
(7.22946 2.40766e-013 0)
(16.5479 1.32366e-013 0)
(32.5802 -3.73744e-012 0)
(55.4754 -2.14468e-012 0)
(82.5122 -8.02065e-013 0)
(111.476 -1.73856e-013 0)
(139.728 1.34304e-012 0)
(166.639 1.41456e-012 0)
(191.558 -5.76013e-012 0)
(214.861 -2.47471e-012 0)
(235.151 -2.78567e-012 0)
(252.161 -3.52671e-013 0)
(266.701 1.3142e-012 0)
(277.133 1.80387e-012 0)
(284.364 1.48211e-012 0)
(290.701 2.28104e-012 0)
(296.366 2.3003e-012 0)
(299.53 1.19699e-013 0)
(299.292 3.4994e-013 0)
(296.57 6.52013e-012 0)
(292.725 4.87849e-012 0)
(288.646 3.57983e-012 0)
(284.806 -1.89143e-012 0)
(281.991 -2.50536e-012 0)
(280.234 -2.24784e-012 0)
(278.585 -7.06904e-012 0)
(275.569 -1.32722e-011 0)
(268.129 -2.33365e-011 0)
(248.671 -3.99894e-011 0)
(189.311 -3.84002e-011 0)
(76.4832 -5.97843e-012 0)
(14.1489 1.21519e-012 0)
(2.48019 -4.90498e-013 0)
(0.439289 -2.58125e-012 0)
(0.0806692 -2.51877e-012 0)
(0.0153495 -2.2472e-012 0)
(0.00301685 -4.92687e-012 0)
(0.000612567 -3.39866e-012 0)
(0.000128528 5.5663e-012 0)
(2.7863e-005 2.89194e-012 0)
(6.2395e-006 3.28421e-012 0)
(1.45768e-006 5.46052e-012 0)
(2.93768e-007 2.58341e-012 0)
(3.08203e-012 4.82857e-012 0)
(3.38547e-012 5.77892e-012 0)
(1.8159e-011 3.87625e-012 0)
(1.38915e-010 2.93455e-012 0)
(1.35619e-009 -8.95306e-014 0)
(1.41599e-008 -6.28436e-012 0)
(1.17834e-007 4.50652e-012 0)
(1.04531e-006 -3.80017e-012 0)
(7.5389e-006 2.91142e-012 0)
(5.59506e-005 1.43455e-012 0)
(0.000345411 2.87828e-013 0)
(0.00211344 4.50554e-013 0)
(0.01098 1.53975e-013 0)
(0.0542119 -2.45253e-012 0)
(0.229848 1.01222e-012 0)
(0.860719 3.6507e-012 0)
(2.68815 6.12565e-012 0)
(7.22946 5.66371e-012 0)
(16.5479 -3.09564e-012 0)
(32.5802 -2.44263e-012 0)
(55.4754 -2.92203e-012 0)
(82.5122 5.12265e-014 0)
(111.476 7.52634e-013 0)
(139.728 1.12877e-012 0)
(166.639 6.67992e-013 0)
(191.558 -4.49786e-012 0)
(214.861 1.27834e-012 0)
(235.151 -2.77831e-013 0)
(252.161 -1.45223e-012 0)
(266.701 -1.75409e-012 0)
(277.133 2.00116e-012 0)
(284.364 1.25429e-012 0)
(290.701 7.16836e-014 0)
(296.366 9.24127e-014 0)
(299.53 -8.33889e-013 0)
(299.292 -1.67693e-012 0)
(296.57 6.53047e-012 0)
(292.725 7.08973e-012 0)
(288.646 4.0859e-012 0)
(284.806 5.94719e-012 0)
(281.991 4.04197e-012 0)
(280.234 1.17586e-011 0)
(278.585 1.19739e-011 0)
(275.569 7.52803e-012 0)
(268.129 4.98542e-012 0)
(248.671 5.13432e-012 0)
(189.311 1.77672e-012 0)
(76.4832 3.3397e-012 0)
(14.1489 2.78294e-012 0)
(2.48019 6.10946e-012 0)
(0.439289 6.51075e-012 0)
(0.0806692 -4.08485e-013 0)
(0.0153495 2.89705e-012 0)
(0.00301685 -4.16102e-012 0)
(0.000612567 -1.9498e-012 0)
(0.000128528 -2.70725e-012 0)
(2.7863e-005 3.3052e-012 0)
(6.2395e-006 -2.6518e-013 0)
(1.45768e-006 2.64383e-012 0)
(2.93768e-007 -4.88428e-012 0)
(3.42836e-012 2.31315e-013 0)
(3.2164e-012 1.96893e-013 0)
(1.74324e-011 5.62417e-012 0)
(1.38681e-010 -3.15209e-013 0)
(1.35618e-009 2.93873e-012 0)
(1.41603e-008 -5.77467e-012 0)
(1.17834e-007 1.95909e-012 0)
(1.04531e-006 -1.3404e-012 0)
(7.5389e-006 2.56661e-012 0)
(5.59506e-005 5.74702e-012 0)
(0.000345411 3.32247e-012 0)
(0.00211344 -4.70511e-013 0)
(0.01098 1.08856e-012 0)
(0.0542119 -5.33259e-012 0)
(0.229848 3.59478e-013 0)
(0.860719 9.68751e-012 0)
(2.68815 6.60975e-012 0)
(7.22946 3.13934e-012 0)
(16.5479 -5.57833e-013 0)
(32.5802 -3.85219e-012 0)
(55.4754 -2.21734e-012 0)
(82.5122 -2.03563e-012 0)
(111.476 -2.16155e-012 0)
(139.728 8.43349e-013 0)
(166.639 2.77955e-013 0)
(191.558 -5.07747e-012 0)
(214.861 -2.92123e-012 0)
(235.151 4.22297e-013 0)
(252.161 -2.34668e-012 0)
(266.701 -6.79139e-013 0)
(277.133 5.301e-013 0)
(284.364 -3.09635e-013 0)
(290.701 -5.09256e-013 0)
(296.366 -2.07144e-013 0)
(299.53 -6.77708e-013 0)
(299.292 -2.55016e-012 0)
(296.57 5.67082e-012 0)
(292.725 4.35166e-012 0)
(288.646 -2.21265e-012 0)
(284.806 7.34877e-012 0)
(281.991 6.18307e-012 0)
(280.234 1.44723e-011 0)
(278.585 1.70749e-011 0)
(275.569 1.82912e-011 0)
(268.129 2.47661e-011 0)
(248.671 3.201e-011 0)
(189.311 4.54873e-011 0)
(76.4832 3.0312e-012 0)
(14.1489 4.12699e-012 0)
(2.48019 1.3514e-012 0)
(0.439289 -2.13361e-012 0)
(0.0806692 -5.89968e-012 0)
(0.0153495 -1.86678e-013 0)
(0.00301685 -4.57492e-012 0)
(0.000612567 7.47903e-013 0)
(0.000128528 2.21364e-012 0)
(2.7863e-005 4.97522e-012 0)
(6.2395e-006 3.13226e-012 0)
(1.45768e-006 4.49009e-012 0)
(2.93767e-007 -3.53341e-012 0)
(3.10299e-012 1.47529e-012 0)
(3.5897e-012 4.74533e-012 0)
(1.81143e-011 4.48752e-012 0)
(1.3878e-010 7.10627e-012 0)
(1.35596e-009 1.58521e-012 0)
(1.41599e-008 -1.03076e-011 0)
(1.17834e-007 1.94217e-012 0)
(1.04531e-006 1.50824e-013 0)
(7.5389e-006 6.01131e-012 0)
(5.59506e-005 5.44936e-012 0)
(0.000345411 6.61819e-012 0)
(0.00211344 1.47188e-012 0)
(0.01098 1.74387e-013 0)
(0.0542119 -3.08346e-012 0)
(0.229848 3.96405e-012 0)
(0.860719 6.74365e-012 0)
(2.68815 9.589e-012 0)
(7.22946 5.97442e-012 0)
(16.5479 -1.8087e-012 0)
(32.5802 -9.70916e-013 0)
(55.4754 -4.63923e-012 0)
(82.5122 -8.79318e-013 0)
(111.476 -2.38792e-012 0)
(139.728 7.64512e-014 0)
(166.639 7.5078e-013 0)
(191.558 3.23353e-012 0)
(214.861 1.12688e-012 0)
(235.151 2.55613e-012 0)
(252.161 -1.65525e-014 0)
(266.701 -7.28005e-013 0)
(277.133 -1.51354e-012 0)
(284.364 -4.27726e-013 0)
(290.701 1.21823e-012 0)
(296.366 -3.01667e-013 0)
(299.53 -4.63692e-012 0)
(299.292 -2.95864e-012 0)
(296.57 3.10552e-012 0)
(292.725 -2.9485e-012 0)
(288.646 -8.32472e-012 0)
(284.806 2.20318e-012 0)
(281.991 3.88265e-012 0)
(280.234 7.52296e-012 0)
(278.585 4.09477e-012 0)
(275.569 3.81429e-012 0)
(268.129 2.52518e-012 0)
(248.671 1.0843e-012 0)
(189.311 1.95586e-011 0)
(76.4832 4.66434e-012 0)
(14.1489 4.77539e-012 0)
(2.48019 2.38676e-012 0)
(0.439289 5.56317e-012 0)
(0.0806692 -2.09878e-012 0)
(0.0153495 3.11246e-012 0)
(0.00301685 -7.6561e-013 0)
(0.000612567 1.50001e-012 0)
(0.000128528 -1.0217e-013 0)
(2.7863e-005 2.73807e-012 0)
(6.2395e-006 3.59814e-012 0)
(1.45768e-006 1.1573e-012 0)
(2.93767e-007 -1.04159e-011 0)
(3.53088e-012 2.42833e-012 0)
(3.31675e-012 1.0874e-012 0)
(1.75333e-011 5.80668e-012 0)
(1.38611e-010 5.35878e-013 0)
(1.3555e-009 1.94537e-012 0)
(1.41602e-008 -9.13453e-012 0)
(1.17834e-007 1.80269e-012 0)
(1.04531e-006 2.73368e-012 0)
(7.5389e-006 6.52839e-012 0)
(5.59506e-005 6.0848e-012 0)
(0.000345411 8.08043e-012 0)
(0.00211344 1.29385e-012 0)
(0.01098 4.04593e-013 0)
(0.0542119 -5.20285e-012 0)
(0.229848 5.02491e-012 0)
(0.860719 1.05614e-011 0)
(2.68815 1.04323e-011 0)
(7.22946 4.00649e-012 0)
(16.5479 -2.89725e-012 0)
(32.5802 -1.12918e-012 0)
(55.4754 -3.35808e-012 0)
(82.5122 -4.18014e-012 0)
(111.476 9.57747e-013 0)
(139.728 5.67484e-013 0)
(166.639 2.36e-012 0)
(191.558 -3.72848e-012 0)
(214.861 6.8937e-014 0)
(235.151 1.4276e-012 0)
(252.161 -2.25471e-012 0)
(266.701 -1.76836e-012 0)
(277.133 1.16975e-012 0)
(284.364 1.61799e-012 0)
(290.701 2.83584e-012 0)
(296.366 2.21208e-012 0)
(299.53 -4.32245e-013 0)
(299.292 2.08632e-012 0)
(296.57 8.55534e-013 0)
(292.725 -9.46995e-012 0)
(288.646 -1.23855e-011 0)
(284.806 -6.06717e-013 0)
(281.991 -4.43286e-013 0)
(280.234 -8.63581e-012 0)
(278.585 -1.21657e-011 0)
(275.569 -1.84983e-011 0)
(268.129 -2.56811e-011 0)
(248.671 -5.04484e-011 0)
(189.311 -2.67402e-011 0)
(76.4832 -8.26694e-012 0)
(14.1489 1.83789e-012 0)
(2.48019 -3.93007e-012 0)
(0.439289 -1.28215e-013 0)
(0.0806692 -5.6275e-012 0)
(0.0153495 1.7306e-012 0)
(0.00301685 1.0931e-012 0)
(0.000612567 4.24872e-012 0)
(0.000128528 3.90127e-012 0)
(2.7863e-005 4.32698e-013 0)
(6.2395e-006 3.47403e-012 0)
(1.45768e-006 2.22943e-012 0)
(2.93765e-007 -1.471e-011 0)
(3.06974e-012 4.53575e-012 0)
(3.71586e-012 4.81808e-013 0)
(1.80512e-011 6.7024e-012 0)
(1.38629e-010 5.27483e-012 0)
(1.3556e-009 6.65125e-013 0)
(1.416e-008 -9.77149e-012 0)
(1.17834e-007 -2.86453e-014 0)
(1.04531e-006 2.97808e-012 0)
(7.5389e-006 7.96862e-012 0)
(5.59506e-005 6.03307e-012 0)
(0.000345411 9.1681e-012 0)
(0.00211344 3.34643e-012 0)
(0.01098 -4.69754e-013 0)
(0.0542119 -2.09491e-012 0)
(0.229848 8.37436e-012 0)
(0.860719 8.56716e-012 0)
(2.68815 6.79601e-012 0)
(7.22946 6.43087e-012 0)
(16.5479 3.06064e-013 0)
(32.5802 -2.38298e-012 0)
(55.4754 -3.93552e-012 0)
(82.5122 1.23382e-013 0)
(111.476 -3.0374e-012 0)
(139.728 1.22535e-012 0)
(166.639 3.29568e-012 0)
(191.558 -1.62921e-012 0)
(214.861 -1.90282e-012 0)
(235.151 1.67332e-012 0)
(252.161 -6.95934e-013 0)
(266.701 -2.24898e-012 0)
(277.133 -3.00919e-013 0)
(284.364 3.90661e-012 0)
(290.701 8.17606e-012 0)
(296.366 7.17269e-012 0)
(299.53 2.46927e-012 0)
(299.292 2.55318e-012 0)
(296.57 -2.04716e-012 0)
(292.725 -1.28149e-011 0)
(288.646 -1.27419e-011 0)
(284.806 -1.43602e-012 0)
(281.991 3.3878e-012 0)
(280.234 -1.13035e-011 0)
(278.585 -1.20074e-011 0)
(275.569 -1.86577e-011 0)
(268.129 -2.62845e-011 0)
(248.671 -4.12464e-011 0)
(189.311 -3.57736e-011 0)
(76.4832 -1.00633e-011 0)
(14.1489 1.10908e-012 0)
(2.48019 -4.38382e-012 0)
(0.439289 2.39059e-012 0)
(0.0806692 -6.93162e-013 0)
(0.0153495 2.57244e-012 0)
(0.00301685 1.84513e-012 0)
(0.000612567 4.20241e-013 0)
(0.000128528 2.32121e-012 0)
(2.7863e-005 -1.09954e-012 0)
(6.2395e-006 2.08105e-012 0)
(1.45768e-006 1.70825e-012 0)
(2.93764e-007 -2.44321e-011 0)
(3.37645e-012 5.52188e-012 0)
(3.3777e-012 -1.81885e-012 0)
(1.77221e-011 6.24981e-012 0)
(1.38394e-010 -2.71615e-013 0)
(1.35495e-009 4.75595e-013 0)
(1.41602e-008 -7.86445e-012 0)
(1.17834e-007 2.62035e-012 0)
(1.04531e-006 1.45525e-012 0)
(7.5389e-006 7.84961e-012 0)
(5.59506e-005 2.5114e-012 0)
(0.000345411 8.67817e-012 0)
(0.00211344 1.85853e-012 0)
(0.01098 -1.14944e-012 0)
(0.0542119 -2.66013e-012 0)
(0.229848 9.61564e-012 0)
(0.860719 9.18574e-012 0)
(2.68815 6.35586e-012 0)
(7.22946 5.04235e-012 0)
(16.5479 4.41397e-013 0)
(32.5802 -2.87998e-013 0)
(55.4754 -6.86317e-013 0)
(82.5122 -1.19721e-012 0)
(111.476 -1.09359e-012 0)
(139.728 1.23459e-012 0)
(166.639 -2.02064e-012 0)
(191.558 -6.77562e-013 0)
(214.861 -2.29654e-012 0)
(235.151 2.86315e-013 0)
(252.161 -1.54565e-012 0)
(266.701 -2.13723e-012 0)
(277.133 2.01122e-012 0)
(284.364 8.20774e-012 0)
(290.701 1.15679e-011 0)
(296.366 1.12619e-011 0)
(299.53 6.55063e-012 0)
(299.292 6.55299e-012 0)
(296.57 8.56398e-013 0)
(292.725 -8.3527e-012 0)
(288.646 -2.07773e-012 0)
(284.806 1.25304e-012 0)
(281.991 5.13246e-012 0)
(280.234 -9.32343e-012 0)
(278.585 -7.61745e-012 0)
(275.569 -6.265e-012 0)
(268.129 -3.28141e-012 0)
(248.671 -5.81585e-014 0)
(189.311 6.18856e-012 0)
(76.4832 -3.94108e-012 0)
(14.1489 -3.85675e-012 0)
(2.48019 -1.66794e-012 0)
(0.439289 -2.55684e-012 0)
(0.0806692 -2.64076e-012 0)
(0.0153495 1.13677e-012 0)
(0.00301685 7.18645e-013 0)
(0.000612567 4.8093e-012 0)
(0.000128528 1.94572e-012 0)
(2.7863e-005 2.3329e-012 0)
(6.2395e-006 7.70487e-013 0)
(1.45767e-006 3.34591e-013 0)
(2.93761e-007 -3.09108e-011 0)
(2.86736e-012 1.96837e-012 0)
(3.72973e-012 2.08181e-013 0)
(1.80773e-011 3.13186e-012 0)
(1.38437e-010 -2.57232e-013 0)
(1.35532e-009 1.76906e-012 0)
(1.41601e-008 -7.34658e-012 0)
(1.17835e-007 2.96238e-012 0)
(1.04531e-006 4.19603e-012 0)
(7.5389e-006 8.39583e-012 0)
(5.59506e-005 1.24095e-012 0)
(0.000345411 1.112e-011 0)
(0.00211344 4.89375e-012 0)
(0.01098 1.63539e-012 0)
(0.0542119 -1.50775e-012 0)
(0.229848 1.10435e-011 0)
(0.860719 5.8849e-012 0)
(2.68815 5.1928e-012 0)
(7.22946 5.5404e-012 0)
(16.5479 9.31422e-013 0)
(32.5802 -6.24372e-013 0)
(55.4754 -6.38355e-012 0)
(82.5122 4.04631e-012 0)
(111.476 -1.87432e-012 0)
(139.728 4.85491e-013 0)
(166.639 2.83001e-012 0)
(191.558 -1.75356e-012 0)
(214.861 -1.38233e-013 0)
(235.151 -1.56438e-012 0)
(252.161 -3.24389e-012 0)
(266.701 -8.74108e-013 0)
(277.133 2.15491e-012 0)
(284.364 1.03451e-011 0)
(290.701 1.47173e-011 0)
(296.366 1.52001e-011 0)
(299.53 1.21906e-011 0)
(299.292 9.93595e-012 0)
(296.57 1.76218e-012 0)
(292.725 -1.46375e-012 0)
(288.646 1.3129e-011 0)
(284.806 8.91575e-012 0)
(281.991 9.731e-012 0)
(280.234 -7.49131e-012 0)
(278.585 -2.87769e-012 0)
(275.569 -8.06527e-013 0)
(268.129 5.94977e-012 0)
(248.671 2.27537e-011 0)
(189.311 4.03016e-011 0)
(76.4832 -2.2535e-012 0)
(14.1489 1.74155e-013 0)
(2.48019 -1.2686e-012 0)
(0.439289 -1.88511e-012 0)
(0.0806692 -2.07902e-012 0)
(0.0153495 3.44725e-012 0)
(0.00301685 3.424e-012 0)
(0.000612567 1.38531e-012 0)
(0.000128528 4.20159e-012 0)
(2.7863e-005 2.44819e-012 0)
(6.2395e-006 1.1427e-013 0)
(1.45767e-006 -1.2987e-012 0)
(2.93759e-007 -4.38687e-011 0)
(3.27769e-012 -1.19008e-012 0)
(3.45932e-012 -2.56234e-012 0)
(1.77152e-011 3.58253e-012 0)
(1.38352e-010 -7.39964e-013 0)
(1.35474e-009 3.82676e-012 0)
(1.41602e-008 -4.64263e-012 0)
(1.17835e-007 3.88675e-012 0)
(1.04531e-006 2.98749e-012 0)
(7.5389e-006 5.37285e-012 0)
(5.59506e-005 -8.26634e-013 0)
(0.000345411 1.01312e-011 0)
(0.00211344 4.83307e-012 0)
(0.01098 1.75588e-012 0)
(0.0542119 -2.52613e-012 0)
(0.229848 1.1323e-011 0)
(0.860719 5.85008e-012 0)
(2.68815 4.34732e-012 0)
(7.22946 5.15491e-012 0)
(16.5479 2.341e-012 0)
(32.5802 -7.43619e-013 0)
(55.4754 -2.27841e-012 0)
(82.5122 1.67938e-012 0)
(111.476 -2.15969e-012 0)
(139.728 -9.02252e-013 0)
(166.639 -9.44717e-013 0)
(191.558 -2.24012e-012 0)
(214.861 -2.6913e-012 0)
(235.151 -1.27761e-012 0)
(252.161 -1.3545e-012 0)
(266.701 -1.48816e-012 0)
(277.133 2.51471e-012 0)
(284.364 1.12431e-011 0)
(290.701 1.56282e-011 0)
(296.366 1.39542e-011 0)
(299.53 1.32366e-011 0)
(299.292 1.31271e-011 0)
(296.57 3.84113e-012 0)
(292.725 1.45112e-011 0)
(288.646 3.35307e-011 0)
(284.806 2.27551e-011 0)
(281.991 1.80879e-011 0)
(280.234 -5.89078e-012 0)
(278.585 -8.09117e-012 0)
(275.569 -1.07715e-011 0)
(268.129 -1.15445e-011 0)
(248.671 1.25196e-012 0)
(189.311 2.97879e-011 0)
(76.4832 5.12265e-012 0)
(14.1489 -1.5272e-012 0)
(2.48019 -5.711e-013 0)
(0.439289 -2.43727e-012 0)
(0.0806692 -3.39761e-012 0)
(0.0153495 1.12395e-012 0)
(0.00301685 2.01021e-012 0)
(0.000612567 5.59383e-012 0)
(0.000128528 4.33135e-012 0)
(2.7863e-005 5.92914e-012 0)
(6.2395e-006 -3.76885e-012 0)
(1.45767e-006 -8.18372e-013 0)
(2.93754e-007 -5.92365e-011 0)
(2.82836e-012 2.45364e-012 0)
(3.87425e-012 -4.88122e-013 0)
(1.81043e-011 3.48793e-012 0)
(1.38441e-010 -3.40891e-012 0)
(1.35517e-009 3.43241e-012 0)
(1.41601e-008 -4.22516e-012 0)
(1.17835e-007 2.15568e-012 0)
(1.04531e-006 2.24095e-012 0)
(7.5389e-006 5.44957e-012 0)
(5.59506e-005 -2.30178e-013 0)
(0.000345411 1.35312e-011 0)
(0.00211344 5.44097e-012 0)
(0.01098 1.60907e-012 0)
(0.0542119 -2.01574e-012 0)
(0.229848 1.08115e-011 0)
(0.860719 4.32274e-012 0)
(2.68815 3.66093e-012 0)
(7.22946 3.88042e-012 0)
(16.5479 3.12636e-012 0)
(32.5802 -2.62107e-012 0)
(55.4754 -5.30647e-012 0)
(82.5122 1.38817e-012 0)
(111.476 1.03641e-013 0)
(139.728 -1.28337e-012 0)
(166.639 1.50348e-012 0)
(191.558 -6.99613e-013 0)
(214.861 -4.4179e-012 0)
(235.151 -2.19848e-012 0)
(252.161 -7.62426e-013 0)
(266.701 1.15993e-012 0)
(277.133 1.28573e-012 0)
(284.364 8.61515e-012 0)
(290.701 9.99384e-012 0)
(296.366 9.70895e-012 0)
(299.53 1.37821e-011 0)
(299.292 1.39907e-011 0)
(296.57 5.83044e-012 0)
(292.725 2.83205e-011 0)
(288.646 5.2975e-011 0)
(284.806 3.93948e-011 0)
(281.991 2.76254e-011 0)
(280.234 -2.11736e-012 0)
(278.585 -1.31165e-011 0)
(275.569 -2.65857e-011 0)
(268.129 -4.7808e-011 0)
(248.671 -6.43917e-011 0)
(189.311 -3.20981e-011 0)
(76.4832 3.93773e-013 0)
(14.1489 3.68792e-012 0)
(2.48019 2.20495e-013 0)
(0.439289 -2.21173e-012 0)
(0.0806692 -4.54128e-012 0)
(0.0153495 1.4935e-012 0)
(0.00301685 3.83806e-012 0)
(0.000612567 3.94491e-012 0)
(0.000128528 2.38134e-012 0)
(2.7863e-005 5.15096e-012 0)
(6.2395e-006 -6.98681e-012 0)
(1.45766e-006 -3.0662e-013 0)
(2.9375e-007 -7.87166e-011 0)
(3.19477e-012 -4.75095e-013 0)
(3.49163e-012 1.61657e-012 0)
(1.76381e-011 3.61899e-012 0)
(1.38365e-010 -1.96979e-012 0)
(1.3547e-009 4.86149e-012 0)
(1.41602e-008 -6.75673e-012 0)
(1.17835e-007 1.89093e-012 0)
(1.04531e-006 -2.06374e-013 0)
(7.5389e-006 4.29421e-012 0)
(5.59506e-005 -1.80816e-012 0)
(0.000345411 1.05103e-011 0)
(0.00211344 4.26637e-013 0)
(0.01098 3.04e-012 0)
(0.0542119 -1.64685e-014 0)
(0.229848 8.37894e-012 0)
(0.860719 6.688e-012 0)
(2.68815 4.07074e-012 0)
(7.22946 2.98595e-012 0)
(16.5479 -8.23441e-014 0)
(32.5802 2.10151e-013 0)
(55.4754 -5.66379e-012 0)
(82.5122 2.98158e-012 0)
(111.476 -1.99235e-012 0)
(139.728 5.13972e-013 0)
(166.639 -3.2116e-013 0)
(191.558 -3.38385e-012 0)
(214.861 -2.5775e-012 0)
(235.151 -3.2218e-012 0)
(252.161 -2.57911e-012 0)
(266.701 -2.15135e-012 0)
(277.133 4.27492e-013 0)
(284.364 3.88914e-012 0)
(290.701 6.93475e-012 0)
(296.366 6.21109e-012 0)
(299.53 1.07648e-011 0)
(299.292 9.67665e-012 0)
(296.57 8.58119e-012 0)
(292.725 3.8977e-011 0)
(288.646 6.19238e-011 0)
(284.806 5.39205e-011 0)
(281.991 3.99467e-011 0)
(280.234 2.59862e-012 0)
(278.585 -1.56413e-011 0)
(275.569 -3.87306e-011 0)
(268.129 -7.33674e-011 0)
(248.671 -1.03987e-010 0)
(189.311 -7.98899e-011 0)
(76.4832 -9.76711e-012 0)
(14.1489 -1.80814e-012 0)
(2.48019 2.83389e-012 0)
(0.439289 -7.51032e-013 0)
(0.0806692 -2.15049e-012 0)
(0.0153495 -1.79118e-012 0)
(0.00301685 1.69342e-012 0)
(0.000612567 7.96775e-012 0)
(0.000128528 2.63499e-012 0)
(2.7863e-005 5.58774e-012 0)
(6.2395e-006 -1.10318e-011 0)
(1.45766e-006 -1.12454e-012 0)
(2.93743e-007 -1.03966e-010 0)
(2.9103e-012 5.07626e-012 0)
(3.96721e-012 -2.90398e-012 0)
(1.80126e-011 4.94782e-012 0)
(1.38476e-010 -1.49667e-012 0)
(1.35499e-009 4.44462e-012 0)
(1.416e-008 -5.18239e-012 0)
(1.17835e-007 1.06998e-012 0)
(1.04531e-006 8.53798e-013 0)
(7.5389e-006 4.10962e-012 0)
(5.59506e-005 -6.06282e-013 0)
(0.000345411 1.4081e-011 0)
(0.00211344 2.31555e-012 0)
(0.01098 4.1781e-012 0)
(0.0542119 2.81759e-013 0)
(0.229848 7.77137e-012 0)
(0.860719 6.23061e-012 0)
(2.68815 4.44737e-012 0)
(7.22946 1.25214e-012 0)
(16.5479 1.08661e-012 0)
(32.5802 3.83127e-013 0)
(55.4754 -2.13896e-012 0)
(82.5122 5.08574e-012 0)
(111.476 -3.45568e-012 0)
(139.728 -1.62559e-012 0)
(166.639 -4.94219e-013 0)
(191.558 1.90743e-013 0)
(214.861 -1.9153e-012 0)
(235.151 -1.12157e-012 0)
(252.161 -1.76996e-013 0)
(266.701 3.26629e-013 0)
(277.133 1.38999e-012 0)
(284.364 3.72645e-012 0)
(290.701 5.26645e-012 0)
(296.366 5.35809e-012 0)
(299.53 9.85525e-012 0)
(299.292 5.93702e-012 0)
(296.57 1.0558e-011 0)
(292.725 4.27286e-011 0)
(288.646 6.1358e-011 0)
(284.806 6.23542e-011 0)
(281.991 5.32454e-011 0)
(280.234 3.96562e-012 0)
(278.585 -1.46148e-011 0)
(275.569 -3.93772e-011 0)
(268.129 -7.83155e-011 0)
(248.671 -1.22305e-010 0)
(189.311 -8.85696e-011 0)
(76.4832 -9.88321e-012 0)
(14.1489 -1.91061e-014 0)
(2.48019 3.92187e-013 0)
(0.439289 4.47325e-013 0)
(0.0806692 -4.72476e-012 0)
(0.0153495 5.7352e-013 0)
(0.00301685 2.17403e-012 0)
(0.000612567 4.67498e-012 0)
(0.000128528 2.798e-012 0)
(2.7863e-005 4.86892e-012 0)
(6.2395e-006 -1.54422e-011 0)
(1.45765e-006 8.36748e-013 0)
(2.93736e-007 -1.34526e-010 0)
(2.97485e-012 1.19686e-012 0)
(3.49607e-012 -4.5837e-013 0)
(1.76915e-011 3.27437e-012 0)
(1.3835e-010 -2.83037e-012 0)
(1.35458e-009 4.60273e-013 0)
(1.41601e-008 -7.12815e-012 0)
(1.17835e-007 5.12998e-013 0)
(1.04531e-006 5.14462e-013 0)
(7.5389e-006 1.95132e-012 0)
(5.59506e-005 5.05129e-013 0)
(0.000345411 1.38102e-011 0)
(0.00211344 -1.50087e-013 0)
(0.01098 5.69698e-012 0)
(0.0542119 1.84406e-012 0)
(0.229848 6.15557e-012 0)
(0.860719 3.57882e-012 0)
(2.68815 5.11327e-012 0)
(7.22946 9.98227e-013 0)
(16.5479 6.83671e-013 0)
(32.5802 1.33602e-012 0)
(55.4754 -3.46573e-012 0)
(82.5122 5.47631e-012 0)
(111.476 -4.49181e-013 0)
(139.728 1.03667e-013 0)
(166.639 8.05316e-013 0)
(191.558 -2.33242e-012 0)
(214.861 -1.66512e-012 0)
(235.151 -1.00607e-012 0)
(252.161 -1.99719e-013 0)
(266.701 1.01356e-013 0)
(277.133 7.71231e-013 0)
(284.364 2.97883e-012 0)
(290.701 3.22544e-012 0)
(296.366 3.74274e-012 0)
(299.53 7.03018e-012 0)
(299.292 2.33272e-012 0)
(296.57 1.41921e-011 0)
(292.725 3.9538e-011 0)
(288.646 5.10094e-011 0)
(284.806 6.15728e-011 0)
(281.991 6.24491e-011 0)
(280.234 9.79659e-012 0)
(278.585 -3.92812e-012 0)
(275.569 -3.07085e-011 0)
(268.129 -6.3819e-011 0)
(248.671 -8.91688e-011 0)
(189.311 -7.25114e-011 0)
(76.4832 -1.11962e-011 0)
(14.1489 -1.67786e-012 0)
(2.48019 3.30329e-012 0)
(0.439289 1.87439e-012 0)
(0.0806692 -2.84542e-012 0)
(0.0153495 -3.95669e-012 0)
(0.00301685 3.43504e-012 0)
(0.000612567 6.35467e-012 0)
(0.000128528 1.83516e-012 0)
(2.7863e-005 3.47106e-012 0)
(6.23949e-006 -1.9671e-011 0)
(1.45764e-006 -7.31058e-014 0)
(2.93725e-007 -1.78173e-010 0)
(2.86687e-012 8.37354e-012 0)
(4.0117e-012 -3.13375e-012 0)
(1.79218e-011 5.01779e-012 0)
(1.38412e-010 -5.46704e-012 0)
(1.35485e-009 -1.8858e-012 0)
(1.416e-008 -4.94591e-012 0)
(1.17835e-007 -7.93108e-013 0)
(1.04531e-006 -2.29653e-013 0)
(7.5389e-006 3.91851e-012 0)
(5.59506e-005 9.33458e-013 0)
(0.000345411 1.44892e-011 0)
(0.00211344 1.76746e-012 0)
(0.01098 7.75856e-012 0)
(0.0542119 2.76612e-012 0)
(0.229848 4.82311e-012 0)
(0.860719 3.23402e-012 0)
(2.68815 3.7932e-012 0)
(7.22946 4.74295e-013 0)
(16.5479 2.11314e-013 0)
(32.5802 1.70122e-012 0)
(55.4754 -2.8626e-012 0)
(82.5122 4.45722e-012 0)
(111.476 -1.57311e-012 0)
(139.728 1.07304e-012 0)
(166.639 -1.78536e-012 0)
(191.558 -7.08302e-013 0)
(214.861 -1.05275e-012 0)
(235.151 -1.34612e-012 0)
(252.161 -6.36785e-013 0)
(266.701 1.49776e-012 0)
(277.133 8.23344e-013 0)
(284.364 2.09663e-012 0)
(290.701 4.91674e-012 0)
(296.366 5.64334e-012 0)
(299.53 6.00493e-012 0)
(299.292 -1.10807e-012 0)
(296.57 1.59479e-011 0)
(292.725 2.76108e-011 0)
(288.646 3.31461e-011 0)
(284.806 4.9396e-011 0)
(281.991 5.76584e-011 0)
(280.234 1.50986e-011 0)
(278.585 5.81784e-012 0)
(275.569 -1.61565e-011 0)
(268.129 -4.09537e-011 0)
(248.671 -5.16575e-011 0)
(189.311 -3.21231e-011 0)
(76.4832 -9.03375e-012 0)
(14.1489 4.97848e-013 0)
(2.48019 1.00825e-012 0)
(0.439289 6.68313e-013 0)
(0.0806692 -3.09494e-012 0)
(0.0153495 -3.85365e-014 0)
(0.00301685 4.8848e-012 0)
(0.000612567 2.778e-012 0)
(0.000128528 4.84244e-012 0)
(2.7863e-005 5.10609e-012 0)
(6.23949e-006 -2.32942e-011 0)
(1.45763e-006 2.50358e-012 0)
(2.93713e-007 -2.27762e-010 0)
(2.6953e-012 1.33502e-012 0)
(3.44316e-012 -3.79547e-013 0)
(1.76298e-011 2.44969e-012 0)
(1.38159e-010 -1.24748e-013 0)
(1.3546e-009 -3.54965e-012 0)
(1.41601e-008 -6.90057e-012 0)
(1.17835e-007 -1.0134e-012 0)
(1.04531e-006 -2.99199e-012 0)
(7.5389e-006 1.34446e-012 0)
(5.59506e-005 1.05269e-012 0)
(0.000345411 1.50894e-011 0)
(0.00211344 -9.68917e-013 0)
(0.01098 8.68845e-012 0)
(0.0542119 4.94151e-012 0)
(0.229848 4.52779e-012 0)
(0.860719 2.93455e-012 0)
(2.68815 2.44846e-012 0)
(7.22946 9.35721e-013 0)
(16.5479 -2.55399e-012 0)
(32.5802 1.16809e-012 0)
(55.4754 -4.36253e-012 0)
(82.5122 5.03756e-012 0)
(111.476 1.23198e-013 0)
(139.728 -7.22394e-013 0)
(166.639 -6.53602e-013 0)
(191.558 -2.62114e-012 0)
(214.861 -2.11475e-012 0)
(235.151 -1.74504e-013 0)
(252.161 -4.81866e-013 0)
(266.701 1.66697e-012 0)
(277.133 1.22556e-012 0)
(284.364 1.70476e-012 0)
(290.701 4.42942e-012 0)
(296.366 5.94583e-012 0)
(299.53 3.11116e-012 0)
(299.292 -3.58025e-012 0)
(296.57 1.6543e-011 0)
(292.725 1.34521e-011 0)
(288.646 1.75777e-011 0)
(284.806 3.60355e-011 0)
(281.991 4.37002e-011 0)
(280.234 2.11775e-011 0)
(278.585 1.56645e-011 0)
(275.569 -1.92014e-012 0)
(268.129 -1.75122e-011 0)
(248.671 -4.62484e-012 0)
(189.311 -1.5028e-011 0)
(76.4832 -4.32094e-013 0)
(14.1489 1.02049e-012 0)
(2.48019 8.95647e-013 0)
(0.439289 4.03102e-012 0)
(0.0806692 -1.90185e-012 0)
(0.0153495 -1.26989e-012 0)
(0.00301685 5.99361e-012 0)
(0.000612567 4.42089e-012 0)
(0.000128528 4.56235e-012 0)
(2.7863e-005 5.90492e-012 0)
(6.23949e-006 -2.9605e-011 0)
(1.45762e-006 3.69356e-012 0)
(2.93697e-007 -2.93921e-010 0)
(2.80926e-012 4.88114e-012 0)
(4.01908e-012 -2.79628e-012 0)
(1.79152e-011 5.20959e-012 0)
(1.38249e-010 -1.35692e-012 0)
(1.35468e-009 -3.20399e-012 0)
(1.41601e-008 -4.59826e-012 0)
(1.17835e-007 -4.06679e-012 0)
(1.04531e-006 -4.04395e-012 0)
(7.5389e-006 1.5083e-012 0)
(5.59506e-005 1.63358e-012 0)
(0.000345411 1.34888e-011 0)
(0.00211344 2.86599e-012 0)
(0.01098 8.90407e-012 0)
(0.0542119 3.06393e-012 0)
(0.229848 5.11832e-012 0)
(0.860719 2.53422e-012 0)
(2.68815 3.92202e-012 0)
(7.22946 -3.08849e-012 0)
(16.5479 -1.05807e-012 0)
(32.5802 -1.14333e-012 0)
(55.4754 8.25988e-013 0)
(82.5122 2.54326e-012 0)
(111.476 -2.47613e-013 0)
(139.728 -1.30143e-012 0)
(166.639 -2.40266e-012 0)
(191.558 -8.23461e-013 0)
(214.861 -1.13518e-012 0)
(235.151 -7.61662e-013 0)
(252.161 2.26466e-012 0)
(266.701 9.63222e-013 0)
(277.133 3.45842e-012 0)
(284.364 1.5418e-012 0)
(290.701 5.94751e-012 0)
(296.366 7.88479e-012 0)
(299.53 3.57058e-012 0)
(299.292 -6.15418e-013 0)
(296.57 1.92269e-011 0)
(292.725 6.19868e-012 0)
(288.646 9.45909e-012 0)
(284.806 2.869e-011 0)
(281.991 3.02657e-011 0)
(280.234 2.56663e-011 0)
(278.585 1.40364e-011 0)
(275.569 -3.40927e-012 0)
(268.129 -9.87934e-012 0)
(248.671 1.73588e-011 0)
(189.311 -1.66508e-011 0)
(76.4832 -1.16861e-012 0)
(14.1489 2.96846e-012 0)
(2.48019 -1.46524e-012 0)
(0.439289 7.62651e-013 0)
(0.0806692 -2.90064e-012 0)
(0.0153495 1.50255e-012 0)
(0.00301685 5.16696e-012 0)
(0.000612567 3.76632e-012 0)
(0.000128528 4.96454e-012 0)
(2.7863e-005 7.47897e-012 0)
(6.23949e-006 -3.75816e-011 0)
(1.4576e-006 6.55969e-012 0)
(2.93677e-007 -3.71298e-010 0)
(2.51019e-012 4.8345e-012 0)
(3.4922e-012 2.57009e-012 0)
(1.76755e-011 3.81257e-012 0)
(1.37946e-010 -1.05913e-012 0)
(1.35453e-009 -2.7967e-012 0)
(1.41601e-008 -7.22921e-012 0)
(1.17835e-007 -3.3007e-012 0)
(1.04531e-006 -7.1792e-012 0)
(7.5389e-006 5.04825e-013 0)
(5.59506e-005 3.09259e-012 0)
(0.000345411 1.41753e-011 0)
(0.00211344 2.44256e-013 0)
(0.01098 8.60628e-012 0)
(0.0542119 2.95004e-012 0)
(0.229848 4.37357e-012 0)
(0.860719 1.85256e-012 0)
(2.68815 2.05652e-012 0)
(7.22946 -4.69105e-013 0)
(16.5479 -1.89619e-012 0)
(32.5802 2.31222e-012 0)
(55.4754 -1.03979e-012 0)
(82.5122 5.14492e-012 0)
(111.476 -5.92267e-013 0)
(139.728 -4.98085e-012 0)
(166.639 -5.85516e-012 0)
(191.558 -1.84887e-012 0)
(214.861 -3.99258e-012 0)
(235.151 -3.27984e-012 0)
(252.161 -5.46747e-013 0)
(266.701 1.83947e-012 0)
(277.133 3.34816e-012 0)
(284.364 2.97613e-012 0)
(290.701 8.79548e-012 0)
(296.366 1.09211e-011 0)
(299.53 4.00089e-012 0)
(299.292 5.90734e-012 0)
(296.57 2.09613e-011 0)
(292.725 2.19268e-012 0)
(288.646 8.49715e-012 0)
(284.806 2.76865e-011 0)
(281.991 2.55644e-011 0)
(280.234 3.47996e-011 0)
(278.585 1.17765e-011 0)
(275.569 -7.1185e-012 0)
(268.129 -1.91052e-011 0)
(248.671 -5.50341e-012 0)
(189.311 -4.25615e-011 0)
(76.4832 2.42734e-012 0)
(14.1489 5.03664e-012 0)
(2.48019 -1.04746e-012 0)
(0.439289 2.03885e-012 0)
(0.0806692 -2.4213e-012 0)
(0.0153495 1.22557e-012 0)
(0.00301685 3.27632e-012 0)
(0.000612567 4.23859e-012 0)
(0.000128528 4.61824e-012 0)
(2.7863e-005 8.06526e-012 0)
(6.23949e-006 -4.73338e-011 0)