/*--------------------------------*- C++ -*----------------------------------*\
| =========                 |                                                 |
| \\      /  F ield         | OpenFOAM: The Open Source CFD Toolbox           |
|  \\    /   O peration     | Version:  5.x                                   |
|   \\  /    A nd           | Web:      www.OpenFOAM.org                      |
|    \\/     M anipulation  |                                                 |
\*---------------------------------------------------------------------------*/
/*   Windows 32 and 64 bit porting by blueCAPE: http://www.bluecape.com.pt   *\
|  Based on Windows porting (2.0.x v4) by Symscape: http://www.symscape.com   |
\*---------------------------------------------------------------------------*/
FoamFile
{
    version     2.0;
    format      ascii;
    class       volVectorField;
    location    "0.003";
    object      U_0;
}
// * * * * * * * * * * * * * * * * * * * * * * * * * * * * * * * * * * * * * //

dimensions      [0 1 -1 0 0 0 0];

internalField   nonuniform List<vector> 
10000
(
(3.28879e-012 1.82734e-012 0)
(3.51229e-012 5.17037e-012 0)
(1.76019e-011 -4.36971e-012 0)
(1.37487e-010 4.75633e-013 0)
(1.34604e-009 6.36078e-013 0)
(1.40548e-008 -1.15006e-012 0)
(1.16995e-007 3.36016e-012 0)
(1.03833e-006 -7.38198e-013 0)
(7.49095e-006 1.86432e-012 0)
(5.56188e-005 1.72311e-012 0)
(0.000343479 1.40406e-012 0)
(0.00210255 1.13687e-013 0)
(0.0109273 4.47841e-013 0)
(0.0539761 -2.16602e-012 0)
(0.228952 8.67644e-013 0)
(0.857847 1.74991e-012 0)
(2.68056 2.47844e-012 0)
(7.21275 2.90244e-012 0)
(16.5171 -3.02615e-012 0)
(32.5344 2.41514e-012 0)
(55.4194 4.41635e-012 0)
(82.4554 -2.11641e-012 0)
(111.425 -2.56622e-013 0)
(139.686 -1.07102e-013 0)
(166.605 4.0016e-013 0)
(191.533 6.63396e-013 0)
(214.844 3.8664e-012 0)
(235.14 2.77585e-012 0)
(252.157 1.73407e-012 0)
(266.7 3.50015e-013 0)
(277.13 3.46275e-013 0)
(284.364 -1.45041e-012 0)
(290.712 -2.87999e-012 0)
(296.383 -3.13589e-012 0)
(299.541 -2.87687e-012 0)
(299.292 2.32444e-014 0)
(296.56 3.37475e-012 0)
(292.708 2.0651e-012 0)
(288.621 -5.01623e-013 0)
(284.782 -1.79434e-012 0)
(281.975 -3.48152e-012 0)
(280.219 -4.19575e-012 0)
(278.563 -4.85561e-012 0)
(275.528 -8.76092e-012 0)
(268.036 -1.47173e-011 0)
(248.426 -2.88986e-011 0)
(188.628 -1.70493e-011 0)
(75.687 -3.98795e-012 0)
(13.9634 5.44285e-013 0)
(2.44605 5.846e-012 0)
(0.433342 4.3241e-012 0)
(0.0795841 2.59009e-013 0)
(0.0151446 -6.63333e-013 0)
(0.0029769 -3.2319e-012 0)
(0.000604513 5.83718e-013 0)
(0.000126851 -5.42605e-012 0)
(2.75024e-005 2.32638e-012 0)
(6.1594e-006 7.16892e-013 0)
(1.43912e-006 1.10159e-012 0)
(2.90049e-007 -2.67207e-012 0)
(3.63277e-012 8.66915e-013 0)
(3.25168e-012 -4.98506e-012 0)
(1.7418e-011 -2.71805e-012 0)
(1.37676e-010 7.20784e-012 0)
(1.34597e-009 3.90483e-012 0)
(1.4055e-008 -3.81173e-012 0)
(1.16995e-007 2.65959e-012 0)
(1.03833e-006 -1.59579e-012 0)
(7.49095e-006 -3.09914e-013 0)
(5.56188e-005 4.2837e-012 0)
(0.000343479 7.33766e-013 0)
(0.00210255 -1.63978e-012 0)
(0.0109273 2.12879e-012 0)
(0.0539761 -4.91393e-012 0)
(0.228952 1.39016e-012 0)
(0.857847 4.23233e-012 0)
(2.68056 2.55415e-012 0)
(7.21275 2.43892e-013 0)
(16.5171 1.13305e-013 0)
(32.5344 -3.72369e-012 0)
(55.4194 -2.1598e-012 0)
(82.4554 -8.25983e-013 0)
(111.425 -1.21602e-013 0)
(139.686 1.35733e-012 0)
(166.605 1.43035e-012 0)
(191.533 -5.75593e-012 0)
(214.844 -2.45379e-012 0)
(235.14 -2.73745e-012 0)
(252.157 -3.35029e-013 0)
(266.7 1.35631e-012 0)
(277.13 1.82588e-012 0)
(284.364 1.46208e-012 0)
(290.712 2.22773e-012 0)
(296.383 2.24463e-012 0)
(299.541 7.75386e-014 0)
(299.292 3.65745e-013 0)
(296.56 6.57602e-012 0)
(292.708 4.95874e-012 0)
(288.621 3.76756e-012 0)
(284.782 -1.73885e-012 0)
(281.975 -2.40663e-012 0)
(280.219 -2.33363e-012 0)
(278.563 -7.30177e-012 0)
(275.528 -1.35489e-011 0)
(268.036 -2.37518e-011 0)
(248.426 -4.04605e-011 0)
(188.628 -3.81323e-011 0)
(75.687 -5.80156e-012 0)
(13.9634 1.22611e-012 0)
(2.44605 -4.19386e-013 0)
(0.433342 -2.5826e-012 0)
(0.0795841 -2.52533e-012 0)
(0.0151446 -2.30417e-012 0)
(0.0029769 -4.92407e-012 0)
(0.000604513 -3.38427e-012 0)
(0.000126851 5.51561e-012 0)
(2.75024e-005 2.82058e-012 0)
(6.1594e-006 3.22061e-012 0)
(1.43912e-006 5.4791e-012 0)
(2.90048e-007 2.64745e-012 0)
(3.08033e-012 4.82606e-012 0)
(3.38447e-012 5.77732e-012 0)
(1.8064e-011 3.86226e-012 0)
(1.37759e-010 2.85307e-012 0)
(1.34559e-009 -1.05937e-013 0)
(1.40548e-008 -6.32015e-012 0)
(1.16995e-007 4.46663e-012 0)
(1.03833e-006 -3.7348e-012 0)
(7.49095e-006 2.97169e-012 0)
(5.56188e-005 1.47554e-012 0)
(0.000343479 2.60214e-013 0)
(0.00210255 5.76759e-013 0)
(0.0109273 1.6064e-013 0)
(0.0539761 -2.49976e-012 0)
(0.228952 9.78573e-013 0)
(0.857847 3.74031e-012 0)
(2.68056 6.12662e-012 0)
(7.21275 5.6906e-012 0)
(16.5171 -3.09359e-012 0)
(32.5344 -2.498e-012 0)
(55.4194 -2.87147e-012 0)
(82.4554 6.29454e-014 0)
(111.425 7.9426e-013 0)
(139.686 1.13577e-012 0)
(166.605 6.49588e-013 0)
(191.533 -4.47273e-012 0)
(214.844 1.30412e-012 0)
(235.14 -2.52882e-013 0)
(252.157 -1.4695e-012 0)
(266.7 -1.7318e-012 0)
(277.13 2.0117e-012 0)
(284.364 1.22804e-012 0)
(290.712 5.09394e-014 0)
(296.383 7.13091e-014 0)
(299.541 -8.33741e-013 0)
(299.292 -1.64938e-012 0)
(296.56 6.63977e-012 0)
(292.708 7.24964e-012 0)
(288.621 4.25735e-012 0)
(284.782 6.02724e-012 0)
(281.975 4.05722e-012 0)
(280.219 1.17147e-011 0)
(278.563 1.1766e-011 0)
(275.528 7.28575e-012 0)
(268.036 4.62306e-012 0)
(248.426 4.58232e-012 0)
(188.628 1.13277e-012 0)
(75.687 3.22231e-012 0)
(13.9634 2.77553e-012 0)
(2.44605 6.20458e-012 0)
(0.433342 6.51568e-012 0)
(0.0795841 -4.18073e-013 0)
(0.0151446 2.80775e-012 0)
(0.0029769 -4.16798e-012 0)
(0.000604513 -1.98463e-012 0)
(0.000126851 -2.78679e-012 0)
(2.75024e-005 3.26085e-012 0)
(6.1594e-006 -3.07058e-013 0)
(1.43912e-006 2.65115e-012 0)
(2.90048e-007 -4.79109e-012 0)
(3.42733e-012 2.25779e-013 0)
(3.21691e-012 1.98541e-013 0)
(1.7334e-011 5.69056e-012 0)
(1.37525e-010 -4.06218e-013 0)
(1.34557e-009 2.95105e-012 0)
(1.40551e-008 -5.76183e-012 0)
(1.16995e-007 1.94182e-012 0)
(1.03833e-006 -1.3043e-012 0)
(7.49095e-006 2.60238e-012 0)
(5.56188e-005 5.74361e-012 0)
(0.000343479 3.29517e-012 0)
(0.00210255 -3.94232e-013 0)
(0.0109273 1.09497e-012 0)
(0.0539761 -5.32303e-012 0)
(0.228952 3.526e-013 0)
(0.857847 9.73365e-012 0)
(2.68056 6.63522e-012 0)
(7.21275 3.16762e-012 0)
(16.5171 -5.52768e-013 0)
(32.5344 -3.87112e-012 0)
(55.4194 -2.20349e-012 0)
(82.4554 -2.05545e-012 0)
(111.425 -2.14172e-012 0)
(139.686 8.65836e-013 0)
(166.605 2.92686e-013 0)
(191.533 -5.05708e-012 0)
(214.844 -2.86617e-012 0)
(235.14 4.36123e-013 0)
(252.157 -2.38421e-012 0)
(266.7 -7.10493e-013 0)
(277.13 5.11147e-013 0)
(284.364 -3.15791e-013 0)
(290.712 -5.4315e-013 0)
(296.383 -2.37111e-013 0)
(299.541 -6.78558e-013 0)
(299.292 -2.50269e-012 0)
(296.56 5.78749e-012 0)
(292.708 4.52303e-012 0)
(288.621 -2.0315e-012 0)
(284.782 7.45664e-012 0)
(281.975 6.19542e-012 0)
(280.219 1.45883e-011 0)
(278.563 1.72628e-011 0)
(275.528 1.85937e-011 0)
(268.036 2.51919e-011 0)
(248.426 3.24492e-011 0)
(188.628 4.535e-011 0)
(75.687 2.72775e-012 0)
(13.9634 4.07665e-012 0)
(2.44605 1.34513e-012 0)
(0.433342 -2.10127e-012 0)
(0.0795841 -5.89081e-012 0)
(0.0151446 -2.3512e-013 0)
(0.0029769 -4.6556e-012 0)
(0.000604513 6.94467e-013 0)
(0.000126851 2.19164e-012 0)
(2.75024e-005 5.01282e-012 0)
(6.1594e-006 3.17604e-012 0)
(1.43912e-006 4.47204e-012 0)
(2.90047e-007 -3.36933e-012 0)
(3.10162e-012 1.49988e-012 0)
(3.59133e-012 4.74195e-012 0)
(1.80156e-011 4.51086e-012 0)
(1.37622e-010 7.08839e-012 0)
(1.34536e-009 1.58841e-012 0)
(1.40548e-008 -1.019e-011 0)
(1.16996e-007 1.93527e-012 0)
(1.03833e-006 1.75721e-013 0)
(7.49095e-006 5.94882e-012 0)
(5.56188e-005 5.40283e-012 0)
(0.000343479 6.5564e-012 0)
(0.00210255 1.57067e-012 0)
(0.0109273 2.06182e-013 0)
(0.0539761 -3.04199e-012 0)
(0.228952 4.009e-012 0)
(0.857847 6.83372e-012 0)
(2.68056 9.59463e-012 0)
(7.21275 5.94063e-012 0)
(16.5171 -1.80221e-012 0)
(32.5344 -9.0949e-013 0)
(55.4194 -4.66381e-012 0)
(82.4554 -9.13865e-013 0)
(111.425 -2.40629e-012 0)
(139.686 1.02954e-013 0)
(166.605 7.91545e-013 0)
(191.533 3.22921e-012 0)
(214.844 1.1346e-012 0)
(235.14 2.55766e-012 0)
(252.157 -2.18804e-014 0)
(266.7 -7.31224e-013 0)
(277.13 -1.51876e-012 0)
(284.364 -4.27528e-013 0)
(290.712 1.17266e-012 0)
(296.383 -3.58233e-013 0)
(299.541 -4.70214e-012 0)
(299.292 -2.87506e-012 0)
(296.56 3.17255e-012 0)
(292.708 -2.86161e-012 0)
(288.621 -8.20295e-012 0)
(284.782 2.34471e-012 0)
(281.975 3.84035e-012 0)
(280.219 7.67578e-012 0)
(278.563 4.43586e-012 0)
(275.528 4.29701e-012 0)
(268.036 3.36756e-012 0)
(248.426 2.42477e-012 0)
(188.628 2.07715e-011 0)
(75.687 4.5863e-012 0)
(13.9634 4.74284e-012 0)
(2.44605 2.39881e-012 0)
(0.433342 5.59429e-012 0)
(0.0795841 -2.02445e-012 0)
(0.0151446 3.13345e-012 0)
(0.0029769 -8.51548e-013 0)
(0.000604513 1.4426e-012 0)
(0.000126851 -1.28242e-013 0)
(2.75024e-005 2.77932e-012 0)
(6.1594e-006 3.58938e-012 0)
(1.43912e-006 1.0938e-012 0)
(2.90047e-007 -1.02121e-011 0)
(3.52888e-012 2.44984e-012 0)
(3.31734e-012 1.11561e-012 0)
(1.74344e-011 5.80074e-012 0)
(1.37454e-010 5.44758e-013 0)
(1.34489e-009 1.97497e-012 0)
(1.40551e-008 -8.98481e-012 0)
(1.16996e-007 1.79426e-012 0)
(1.03833e-006 2.75889e-012 0)
(7.49095e-006 6.4065e-012 0)
(5.56188e-005 6.00693e-012 0)
(0.000343479 8.04301e-012 0)
(0.00210255 1.36684e-012 0)
(0.0109273 4.30202e-013 0)
(0.0539761 -5.20003e-012 0)
(0.228952 5.07581e-012 0)
(0.857847 1.06392e-011 0)
(2.68056 1.04483e-011 0)
(7.21275 3.96405e-012 0)
(16.5171 -2.89364e-012 0)
(32.5344 -1.10683e-012 0)
(55.4194 -3.40934e-012 0)
(82.4554 -4.21137e-012 0)
(111.425 9.4046e-013 0)
(139.686 6.05542e-013 0)
(166.605 2.39669e-012 0)
(191.533 -3.71819e-012 0)
(214.844 3.51826e-014 0)
(235.14 1.44788e-012 0)
(252.157 -2.20721e-012 0)
(266.7 -1.76516e-012 0)
(277.13 1.17889e-012 0)
(284.364 1.58837e-012 0)
(290.712 2.81957e-012 0)
(296.383 2.17923e-012 0)
(299.541 -4.94717e-013 0)
(299.292 2.10514e-012 0)
(296.56 8.55571e-013 0)
(292.708 -9.48359e-012 0)
(288.621 -1.24289e-011 0)
(284.782 -4.38653e-013 0)
(281.975 -5.77138e-013 0)
(280.219 -8.71563e-012 0)
(278.563 -1.22325e-011 0)
(275.528 -1.85388e-011 0)
(268.036 -2.56014e-011 0)
(248.426 -5.0153e-011 0)
(188.628 -2.58891e-011 0)
(75.687 -7.97221e-012 0)
(13.9634 1.87809e-012 0)
(2.44605 -3.88799e-012 0)
(0.433342 -1.13581e-013 0)
(0.0795841 -5.54996e-012 0)
(0.0151446 1.80453e-012 0)
(0.0029769 9.89749e-013 0)
(0.000604513 4.2349e-012 0)
(0.000126851 3.86289e-012 0)
(2.75024e-005 3.79124e-013 0)
(6.1594e-006 3.41826e-012 0)
(1.43911e-006 2.16483e-012 0)
(2.90045e-007 -1.44625e-011 0)
(3.06864e-012 4.527e-012 0)
(3.71643e-012 4.99926e-013 0)
(1.79517e-011 6.67981e-012 0)
(1.37472e-010 5.34009e-012 0)
(1.345e-009 6.29836e-013 0)
(1.40548e-008 -9.65607e-012 0)
(1.16996e-007 2.24306e-014 0)
(1.03833e-006 2.98914e-012 0)
(7.49095e-006 7.85303e-012 0)
(5.56188e-005 6.02179e-012 0)
(0.000343479 9.17539e-012 0)
(0.00210255 3.37536e-012 0)
(0.0109273 -4.36974e-013 0)
(0.0539761 -2.16805e-012 0)
(0.228952 8.42583e-012 0)
(0.857847 8.55344e-012 0)
(2.68056 6.8259e-012 0)
(7.21275 6.43703e-012 0)
(16.5171 3.12364e-013 0)
(32.5344 -2.43169e-012 0)
(55.4194 -3.98678e-012 0)
(82.4554 8.31253e-014 0)
(111.425 -3.04494e-012 0)
(139.686 1.25091e-012 0)
(166.605 3.30006e-012 0)
(191.533 -1.63406e-012 0)
(214.844 -1.8992e-012 0)
(235.14 1.64803e-012 0)
(252.157 -7.0219e-013 0)
(266.7 -2.25954e-012 0)
(277.13 -3.06845e-013 0)
(284.364 3.85878e-012 0)
(290.712 8.1273e-012 0)
(296.383 7.10989e-012 0)
(299.541 2.37879e-012 0)
(299.292 2.47776e-012 0)
(296.56 -2.12396e-012 0)
(292.708 -1.30075e-011 0)
(288.621 -1.30144e-011 0)
(284.782 -1.32286e-012 0)
(281.975 3.30126e-012 0)
(280.219 -1.14056e-011 0)
(278.563 -1.23082e-011 0)
(275.528 -1.91142e-011 0)
(268.036 -2.70211e-011 0)
(248.426 -4.2405e-011 0)
(188.628 -3.67247e-011 0)
(75.687 -9.81369e-012 0)
(13.9634 1.12797e-012 0)
(2.44605 -4.40488e-012 0)
(0.433342 2.38912e-012 0)
(0.0795841 -6.80166e-013 0)
(0.0151446 2.6086e-012 0)
(0.0029769 1.77984e-012 0)
(0.000604513 3.88509e-013 0)
(0.000126851 2.24794e-012 0)
(2.75024e-005 -1.167e-012 0)
(6.1594e-006 2.10491e-012 0)
(1.43911e-006 1.71144e-012 0)
(2.90044e-007 -2.40734e-011 0)
(3.37528e-012 5.53665e-012 0)
(3.37783e-012 -1.85267e-012 0)
(1.76248e-011 6.14811e-012 0)
(1.37236e-010 -2.83042e-013 0)
(1.34435e-009 4.03099e-013 0)
(1.40551e-008 -7.83021e-012 0)
(1.16996e-007 2.69252e-012 0)
(1.03833e-006 1.41788e-012 0)
(7.49095e-006 7.73779e-012 0)
(5.56188e-005 2.50453e-012 0)
(0.000343479 8.60192e-012 0)
(0.00210255 1.83861e-012 0)
(0.0109273 -1.06868e-012 0)
(0.0539761 -2.78296e-012 0)
(0.228952 9.65069e-012 0)
(0.857847 9.16363e-012 0)
(2.68056 6.32852e-012 0)
(7.21275 5.06761e-012 0)
(16.5171 5.14234e-013 0)
(32.5344 -3.21647e-013 0)
(55.4194 -7.02558e-013 0)
(82.4554 -1.1908e-012 0)
(111.425 -1.12319e-012 0)
(139.686 1.21124e-012 0)
(166.605 -2.04818e-012 0)
(191.533 -7.30963e-013 0)
(214.844 -2.30326e-012 0)
(235.14 2.23325e-013 0)
(252.157 -1.60908e-012 0)
(266.7 -2.16621e-012 0)
(277.13 1.98885e-012 0)
(284.364 8.17541e-012 0)
(290.712 1.14959e-011 0)
(296.383 1.11717e-011 0)
(299.541 6.43065e-012 0)
(299.292 6.38332e-012 0)
(296.56 6.51518e-013 0)
(292.708 -8.73735e-012 0)
(288.621 -2.51564e-012 0)
(284.782 1.11988e-012 0)
(281.975 5.10152e-012 0)
(280.219 -9.20285e-012 0)
(278.563 -7.56988e-012 0)
(275.528 -6.40925e-012 0)
(268.036 -3.7417e-012 0)
(248.426 -1.0912e-012 0)
(188.628 4.49184e-012 0)
(75.687 -4.1142e-012 0)
(13.9634 -3.88285e-012 0)
(2.44605 -1.73954e-012 0)
(0.433342 -2.59274e-012 0)
(0.0795841 -2.63473e-012 0)
(0.0151446 1.12579e-012 0)
(0.0029769 7.51044e-013 0)
(0.000604513 4.76442e-012 0)
(0.000126851 1.87797e-012 0)
(2.75024e-005 2.33196e-012 0)
(6.1594e-006 8.44154e-013 0)
(1.43911e-006 3.76598e-013 0)
(2.90041e-007 -3.04107e-011 0)
(2.8647e-012 1.98258e-012 0)
(3.72655e-012 1.89596e-013 0)
(1.79787e-011 3.06612e-012 0)
(1.37281e-010 -4.47701e-013 0)
(1.34472e-009 1.75427e-012 0)
(1.4055e-008 -7.33976e-012 0)
(1.16996e-007 3.03415e-012 0)
(1.03833e-006 4.14902e-012 0)
(7.49095e-006 8.26095e-012 0)
(5.56188e-005 1.20615e-012 0)
(0.000343479 1.0977e-011 0)
(0.00210255 4.80497e-012 0)
(0.0109273 1.70859e-012 0)
(0.0539761 -1.64136e-012 0)
(0.228952 1.10556e-011 0)
(0.857847 5.89995e-012 0)
(2.68056 5.14428e-012 0)
(7.21275 5.5892e-012 0)
(16.5171 9.94495e-013 0)
(32.5344 -6.65234e-013 0)
(55.4194 -6.38013e-012 0)
(82.4554 4.06753e-012 0)
(111.425 -1.92049e-012 0)
(139.686 4.50789e-013 0)
(166.605 2.84015e-012 0)
(191.533 -1.78209e-012 0)
(214.844 -1.39465e-013 0)
(235.14 -1.59241e-012 0)
(252.157 -3.27597e-012 0)
(266.7 -9.00932e-013 0)
(277.13 2.12313e-012 0)
(284.364 1.03846e-011 0)
(290.712 1.47297e-011 0)
(296.383 1.51901e-011 0)
(299.541 1.21568e-011 0)
(299.292 9.722e-012 0)
(296.56 1.48192e-012 0)
(292.708 -1.95476e-012 0)
(288.621 1.24766e-011 0)
(284.782 8.42456e-012 0)
(281.975 9.56962e-012 0)
(280.219 -7.17039e-012 0)
(278.563 -2.34597e-012 0)
(275.528 -2.19032e-013 0)
(268.036 6.60696e-012 0)
(248.426 2.33211e-011 0)
(188.628 3.99347e-011 0)
(75.687 -2.48292e-012 0)
(13.9634 1.88434e-013 0)
(2.44605 -1.35101e-012 0)
(0.433342 -1.91729e-012 0)
(0.0795841 -2.0419e-012 0)
(0.0151446 3.46185e-012 0)
(0.0029769 3.45415e-012 0)
(0.000604513 1.41518e-012 0)
(0.000126851 4.19329e-012 0)
(2.75024e-005 2.43929e-012 0)
(6.1594e-006 2.62298e-013 0)
(1.43911e-006 -1.2071e-012 0)
(2.90039e-007 -4.31978e-011 0)
(3.2754e-012 -1.23499e-012 0)
(3.45686e-012 -2.5663e-012 0)
(1.76125e-011 3.60877e-012 0)
(1.37196e-010 -8.21306e-013 0)
(1.34414e-009 3.88455e-012 0)
(1.40551e-008 -4.59589e-012 0)
(1.16997e-007 3.9652e-012 0)
(1.03833e-006 2.99259e-012 0)
(7.49095e-006 5.23782e-012 0)
(5.56188e-005 -8.42592e-013 0)
(0.000343479 1.00332e-011 0)
(0.00210255 4.7518e-012 0)
(0.0109273 1.79533e-012 0)
(0.0539761 -2.63499e-012 0)
(0.228952 1.13242e-011 0)
(0.857847 5.87547e-012 0)
(2.68056 4.31547e-012 0)
(7.21275 5.2034e-012 0)
(16.5171 2.378e-012 0)
(32.5344 -7.98931e-013 0)
(55.4194 -2.30183e-012 0)
(82.4554 1.69243e-012 0)
(111.425 -2.16347e-012 0)
(139.686 -9.12482e-013 0)
(166.605 -9.33106e-013 0)
(191.533 -2.24237e-012 0)
(214.844 -2.69706e-012 0)
(235.14 -1.29047e-012 0)
(252.157 -1.3621e-012 0)
(266.7 -1.46814e-012 0)
(277.13 2.49838e-012 0)
(284.364 1.13491e-011 0)
(290.712 1.57452e-011 0)
(296.383 1.40447e-011 0)
(299.541 1.32792e-011 0)
(299.292 1.30252e-011 0)
(296.56 3.62384e-012 0)
(292.708 1.40995e-011 0)
(288.621 3.28507e-011 0)
(284.782 2.17636e-011 0)
(281.975 1.76511e-011 0)
(280.219 -5.58492e-012 0)
(278.563 -7.4802e-012 0)
(275.528 -9.80169e-012 0)
(268.036 -9.9767e-012 0)
(248.426 3.60564e-012 0)
(188.628 3.17982e-011 0)
(75.687 4.98991e-012 0)
(13.9634 -1.49861e-012 0)
(2.44605 -6.04726e-013 0)
(0.433342 -2.40024e-012 0)
(0.0795841 -3.34617e-012 0)
(0.0151446 1.18618e-012 0)
(0.0029769 2.02296e-012 0)
(0.000604513 5.66972e-012 0)
(0.000126851 4.34984e-012 0)
(2.75024e-005 5.90862e-012 0)
(6.1594e-006 -3.53659e-012 0)
(1.4391e-006 -6.97599e-013 0)
(2.90035e-007 -5.83812e-011 0)
(2.82703e-012 2.42952e-012 0)
(3.87322e-012 -4.48324e-013 0)
(1.8003e-011 3.46164e-012 0)
(1.37286e-010 -3.36382e-012 0)
(1.34458e-009 3.51456e-012 0)
(1.40549e-008 -4.22055e-012 0)
(1.16997e-007 2.19873e-012 0)
(1.03833e-006 2.28275e-012 0)
(7.49095e-006 5.36569e-012 0)
(5.56188e-005 -2.15952e-013 0)
(0.000343479 1.34678e-011 0)
(0.00210255 5.34572e-012 0)
(0.0109273 1.6308e-012 0)
(0.0539761 -2.07786e-012 0)
(0.228952 1.08024e-011 0)
(0.857847 4.35968e-012 0)
(2.68056 3.68125e-012 0)
(7.21275 3.93528e-012 0)
(16.5171 3.16918e-012 0)
(32.5344 -2.61878e-012 0)
(55.4194 -5.29886e-012 0)
(82.4554 1.44035e-012 0)
(111.425 1.53026e-013 0)
(139.686 -1.24421e-012 0)
(166.605 1.48068e-012 0)
(191.533 -6.91394e-013 0)
(214.844 -4.4305e-012 0)
(235.14 -2.2092e-012 0)
(252.157 -7.38801e-013 0)
(266.7 1.1327e-012 0)
(277.13 1.28573e-012 0)
(284.364 8.73308e-012 0)
(290.712 1.01179e-011 0)
(296.383 9.82008e-012 0)
(299.541 1.38967e-011 0)
(299.292 1.39537e-011 0)
(296.56 5.68096e-012 0)
(292.708 2.81785e-011 0)
(288.621 5.27222e-011 0)
(284.782 3.80873e-011 0)
(281.975 2.68125e-011 0)
(280.219 -2.06707e-012 0)
(278.563 -1.28263e-011 0)
(275.528 -2.59488e-011 0)
(268.036 -4.65325e-011 0)
(248.426 -6.20536e-011 0)
(188.628 -2.9049e-011 0)
(75.687 5.97821e-013 0)
(13.9634 3.66615e-012 0)
(2.44605 1.52626e-013 0)
(0.433342 -2.17968e-012 0)
(0.0795841 -4.52994e-012 0)
(0.0151446 1.55939e-012 0)
(0.0029769 3.89508e-012 0)
(0.000604513 4.00051e-012 0)
(0.000126851 2.37683e-012 0)
(2.75024e-005 5.19468e-012 0)
(6.1594e-006 -6.74536e-012 0)
(1.4391e-006 -1.83561e-013 0)
(2.90031e-007 -7.76043e-011 0)
(3.19441e-012 -4.28591e-013 0)
(3.48911e-012 1.66552e-012 0)
(1.75356e-011 3.57259e-012 0)
(1.37213e-010 -1.95375e-012 0)
(1.34411e-009 4.93816e-012 0)
(1.40551e-008 -6.82017e-012 0)
(1.16997e-007 1.92504e-012 0)
(1.03833e-006 -1.8502e-013 0)
(7.49095e-006 4.27694e-012 0)
(5.56188e-005 -1.76761e-012 0)
(0.000343479 1.04455e-011 0)
(0.00210255 3.28472e-013 0)
(0.0109273 3.0284e-012 0)
(0.0539761 -3.20484e-014 0)
(0.228952 8.37882e-012 0)
(0.857847 6.65227e-012 0)
(2.68056 4.12259e-012 0)
(7.21275 3.06609e-012 0)
(16.5171 -5.31234e-014 0)
(32.5344 2.23273e-013 0)
(55.4194 -5.62639e-012 0)
(82.4554 3.02644e-012 0)
(111.425 -1.99294e-012 0)
(139.686 5.49272e-013 0)
(166.605 -3.16544e-013 0)
(191.533 -3.38861e-012 0)
(214.844 -2.58726e-012 0)
(235.14 -3.22071e-012 0)
(252.157 -2.56756e-012 0)
(266.7 -2.19603e-012 0)
(277.13 4.4358e-013 0)
(284.364 3.97906e-012 0)
(290.712 7.02785e-012 0)
(296.383 6.31375e-012 0)
(299.541 1.08601e-011 0)
(299.292 9.7171e-012 0)
(296.56 8.56284e-012 0)
(292.708 3.91075e-011 0)
(288.621 6.20381e-011 0)
(284.782 5.28348e-011 0)
(281.975 3.88659e-011 0)
(280.219 2.30009e-012 0)
(278.563 -1.58746e-011 0)
(275.528 -3.88586e-011 0)
(268.036 -7.32726e-011 0)
(248.426 -1.03352e-010 0)
(188.628 -7.8113e-011 0)
(75.687 -9.20465e-012 0)
(13.9634 -1.78047e-012 0)
(2.44605 2.81436e-012 0)
(0.433342 -7.68842e-013 0)
(0.0795841 -2.16943e-012 0)
(0.0151446 -1.76902e-012 0)
(0.0029769 1.79191e-012 0)
(0.000604513 7.98912e-012 0)
(0.000126851 2.66075e-012 0)
(2.75024e-005 5.61973e-012 0)
(6.1594e-006 -1.07843e-011 0)
(1.43909e-006 -1.0301e-012 0)
(2.90024e-007 -1.02503e-010 0)
(2.90901e-012 5.11435e-012 0)
(3.96348e-012 -2.88378e-012 0)
(1.79105e-011 4.92646e-012 0)
(1.37325e-010 -1.46397e-012 0)
(1.34439e-009 4.48535e-012 0)
(1.40549e-008 -5.23396e-012 0)
(1.16997e-007 1.11868e-012 0)
(1.03833e-006 8.24387e-013 0)
(7.49095e-006 4.12731e-012 0)
(5.56188e-005 -5.68365e-013 0)
(0.000343479 1.40509e-011 0)
(0.00210255 2.24599e-012 0)
(0.0109273 4.16467e-012 0)
(0.0539761 2.97728e-013 0)
(0.228952 7.74713e-012 0)
(0.857847 6.13867e-012 0)
(2.68056 4.49572e-012 0)
(7.21275 1.26081e-012 0)
(16.5171 1.09188e-012 0)
(32.5344 3.62832e-013 0)
(55.4194 -2.16602e-012 0)
(82.4554 5.13957e-012 0)
(111.425 -3.50102e-012 0)
(139.686 -1.62909e-012 0)
(166.605 -4.93367e-013 0)
(191.533 1.85625e-013 0)
(214.844 -1.95458e-012 0)
(235.14 -1.12456e-012 0)
(252.157 -2.04368e-013 0)
(266.7 3.38877e-013 0)
(277.13 1.3849e-012 0)
(284.364 3.74897e-012 0)
(290.712 5.31114e-012 0)
(296.383 5.41309e-012 0)
(299.541 9.91101e-012 0)
(299.292 5.99682e-012 0)
(296.56 1.06437e-011 0)
(292.708 4.30267e-011 0)
(288.621 6.18256e-011 0)
(284.782 6.19896e-011 0)
(281.975 5.22656e-011 0)
(280.219 3.40816e-012 0)
(278.563 -1.53396e-011 0)
(275.528 -4.02375e-011 0)
(268.036 -7.93614e-011 0)
(248.426 -1.23406e-010 0)
(188.628 -8.86153e-011 0)
(75.687 -9.5554e-012 0)
(13.9634 3.66734e-014 0)
(2.44605 3.69766e-013 0)
(0.433342 4.63628e-013 0)
(0.0795841 -4.73585e-012 0)
(0.0151446 5.50415e-013 0)
(0.0029769 2.25948e-012 0)
(0.000604513 4.62951e-012 0)
(0.000126851 2.81046e-012 0)
(2.75024e-005 4.83341e-012 0)
(6.1594e-006 -1.51754e-011 0)
(1.43909e-006 8.95726e-013 0)
(2.90017e-007 -1.32637e-010 0)
(2.97394e-012 1.20356e-012 0)
(3.49192e-012 -4.64374e-013 0)
(1.75894e-011 3.2011e-012 0)
(1.37199e-010 -2.82177e-012 0)
(1.34399e-009 4.12284e-013 0)
(1.4055e-008 -7.19988e-012 0)
(1.16997e-007 5.37132e-013 0)
(1.03833e-006 4.81474e-013 0)
(7.49095e-006 1.97633e-012 0)
(5.56188e-005 5.64711e-013 0)
(0.000343479 1.38298e-011 0)
(0.00210255 -2.15814e-013 0)
(0.0109273 5.74817e-012 0)
(0.0539761 1.86784e-012 0)
(0.228952 6.10056e-012 0)
(0.857847 3.52519e-012 0)
(2.68056 5.14515e-012 0)
(7.21275 9.49194e-013 0)
(16.5171 6.7724e-013 0)
(32.5344 1.286e-012 0)
(55.4194 -3.42329e-012 0)
(82.4554 5.52629e-012 0)
(111.425 -4.66667e-013 0)
(139.686 8.00838e-014 0)
(166.605 7.70309e-013 0)
(191.533 -2.34281e-012 0)
(214.844 -1.66498e-012 0)
(235.14 -1.05468e-012 0)
(252.157 -2.13574e-013 0)
(266.7 8.24094e-014 0)
(277.13 7.34678e-013 0)
(284.364 2.9613e-012 0)
(290.712 3.19892e-012 0)
(296.383 3.7382e-012 0)
(299.541 7.0797e-012 0)
(299.292 2.33384e-012 0)
(296.56 1.43282e-011 0)
(292.708 4.00372e-011 0)
(288.621 5.17955e-011 0)
(284.782 6.22759e-011 0)
(281.975 6.20604e-011 0)
(280.219 9.203e-012 0)
(278.563 -4.85267e-012 0)
(275.528 -3.18735e-011 0)
(268.036 -6.54435e-011 0)
(248.426 -9.12641e-011 0)
(188.628 -7.35885e-011 0)
(75.687 -1.09857e-011 0)
(13.9634 -1.64425e-012 0)
(2.44605 3.21763e-012 0)
(0.433342 1.88894e-012 0)
(0.0795841 -2.82364e-012 0)
(0.0151446 -3.98294e-012 0)
(0.0029769 3.47571e-012 0)
(0.000604513 6.25608e-012 0)
(0.000126851 1.83187e-012 0)
(2.75024e-005 3.44237e-012 0)
(6.1594e-006 -1.94209e-011 0)
(1.43908e-006 -5.13909e-014 0)
(2.90006e-007 -1.75771e-010 0)
(2.86521e-012 8.35511e-012 0)
(4.00578e-012 -3.12061e-012 0)
(1.78201e-011 4.95393e-012 0)
(1.37261e-010 -5.40804e-012 0)
(1.34425e-009 -1.9978e-012 0)
(1.40549e-008 -5.1113e-012 0)
(1.16997e-007 -8.07377e-013 0)
(1.03833e-006 -2.26614e-013 0)
(7.49095e-006 3.93021e-012 0)
(5.56188e-005 9.7084e-013 0)
(0.000343479 1.4516e-011 0)
(0.00210255 1.74875e-012 0)
(0.0109273 7.82558e-012 0)
(0.0539761 2.77264e-012 0)
(0.228952 4.78716e-012 0)
(0.857847 3.19913e-012 0)
(2.68056 3.79392e-012 0)
(7.21275 4.64792e-013 0)
(16.5171 2.21833e-013 0)
(32.5344 1.64692e-012 0)
(55.4194 -2.77183e-012 0)
(82.4554 4.45634e-012 0)
(111.425 -1.55582e-012 0)
(139.686 1.05361e-012 0)
(166.605 -1.81134e-012 0)
(191.533 -7.42738e-013 0)
(214.844 -1.05135e-012 0)
(235.14 -1.36282e-012 0)
(252.157 -6.5112e-013 0)
(266.7 1.46774e-012 0)
(277.13 7.82796e-013 0)
(284.364 2.09088e-012 0)
(290.712 4.89196e-012 0)
(296.383 5.63601e-012 0)
(299.541 6.0689e-012 0)
(299.292 -1.08983e-012 0)
(296.56 1.61796e-011 0)
(292.708 2.81749e-011 0)
(288.621 3.40271e-011 0)
(284.782 5.07412e-011 0)
(281.975 5.79495e-011 0)
(280.219 1.48443e-011 0)
(278.563 5.19462e-012 0)
(275.528 -1.711e-011 0)
(268.036 -4.24756e-011 0)
(248.426 -5.38391e-011 0)
(188.628 -3.3189e-011 0)
(75.687 -8.87046e-012 0)
(13.9634 5.32108e-013 0)
(2.44605 9.64141e-013 0)
(0.433342 6.44258e-013 0)
(0.0795841 -3.0469e-012 0)
(0.0151446 -2.99277e-014 0)
(0.0029769 4.85689e-012 0)
(0.000604513 2.7075e-012 0)
(0.000126851 4.84578e-012 0)
(2.75024e-005 5.10926e-012 0)
(6.1594e-006 -2.30147e-011 0)
(1.43907e-006 2.49506e-012 0)
(2.89994e-007 -2.2473e-010 0)
(2.69522e-012 1.31805e-012 0)
(3.43776e-012 -3.46898e-013 0)
(1.75289e-011 2.4371e-012 0)
(1.37007e-010 -2.32731e-014 0)
(1.34399e-009 -3.66347e-012 0)
(1.4055e-008 -7.0639e-012 0)
(1.16997e-007 -1.04605e-012 0)
(1.03833e-006 -2.96629e-012 0)
(7.49095e-006 1.37137e-012 0)
(5.56188e-005 1.02427e-012 0)
(0.000343479 1.51313e-011 0)
(0.00210255 -9.29384e-013 0)
(0.0109273 8.74685e-012 0)
(0.0539761 4.98534e-012 0)
(0.228952 4.46927e-012 0)
(0.857847 2.89089e-012 0)
(2.68056 2.41691e-012 0)
(7.21275 9.88075e-013 0)
(16.5171 -2.54326e-012 0)
(32.5344 1.14403e-012 0)
(55.4194 -4.35034e-012 0)
(82.4554 4.96251e-012 0)
(111.425 1.54789e-013 0)
(139.686 -7.4995e-013 0)
(166.605 -7.01034e-013 0)
(191.533 -2.64919e-012 0)
(214.844 -2.17095e-012 0)
(235.14 -1.65159e-013 0)
(252.157 -5.15254e-013 0)
(266.7 1.68292e-012 0)
(277.13 1.22068e-012 0)
(284.364 1.72577e-012 0)
(290.712 4.47308e-012 0)
(296.383 5.95496e-012 0)
(299.541 3.13086e-012 0)
(299.292 -3.48361e-012 0)
(296.56 1.68225e-011 0)
(292.708 1.38525e-011 0)
(288.621 1.82067e-011 0)
(284.782 3.72758e-011 0)
(281.975 4.42081e-011 0)
(280.219 2.14315e-011 0)
(278.563 1.57522e-011 0)
(275.528 -2.13736e-012 0)
(268.036 -1.82115e-011 0)
(248.426 -5.81553e-012 0)
(188.628 -1.52778e-011 0)
(75.687 -3.70941e-013 0)
(13.9634 1.01987e-012 0)
(2.44605 8.72034e-013 0)
(0.433342 4.02032e-012 0)
(0.0795841 -1.83664e-012 0)
(0.0151446 -1.26082e-012 0)
(0.0029769 5.90298e-012 0)
(0.000604513 4.414e-012 0)
(0.000126851 4.56705e-012 0)
(2.75024e-005 5.85024e-012 0)
(6.1594e-006 -2.91915e-011 0)
(1.43905e-006 3.64146e-012 0)
(2.89978e-007 -2.90084e-010 0)
(2.80885e-012 4.90272e-012 0)
(4.01338e-012 -2.80803e-012 0)
(1.78153e-011 5.20174e-012 0)
(1.37096e-010 -1.31857e-012 0)
(1.34407e-009 -3.31407e-012 0)
(1.4055e-008 -4.69223e-012 0)
(1.16997e-007 -4.09062e-012 0)
(1.03833e-006 -3.99414e-012 0)
(7.49095e-006 1.52337e-012 0)
(5.56188e-005 1.58375e-012 0)
(0.000343479 1.35324e-011 0)
(0.00210255 2.89236e-012 0)
(0.0109273 8.93124e-012 0)
(0.0539761 3.16503e-012 0)
(0.228952 5.02205e-012 0)
(0.857847 2.46008e-012 0)
(2.68056 3.87782e-012 0)
(7.21275 -3.06977e-012 0)
(16.5171 -1.05902e-012 0)
(32.5344 -1.13539e-012 0)
(55.4194 8.18569e-013 0)
(82.4554 2.49123e-012 0)
(111.425 -2.45813e-013 0)
(139.686 -1.37288e-012 0)
(166.605 -2.45163e-012 0)
(191.533 -8.06854e-013 0)
(214.844 -1.17594e-012 0)
(235.14 -7.70254e-013 0)
(252.157 2.2533e-012 0)
(266.7 9.7403e-013 0)
(277.13 3.48442e-012 0)
(284.364 1.6061e-012 0)
(290.712 5.96284e-012 0)
(296.383 7.87421e-012 0)
(299.541 3.47967e-012 0)
(299.292 -6.27989e-013 0)
(296.56 1.93522e-011 0)
(292.708 6.29494e-012 0)
(288.621 9.56258e-012 0)
(284.782 2.95624e-011 0)
(281.975 3.0538e-011 0)
(280.219 2.59586e-011 0)
(278.563 1.46012e-011 0)
(275.528 -2.82314e-012 0)
(268.036 -9.30574e-012 0)
(248.426 1.81125e-011 0)
(188.628 -1.54138e-011 0)
(75.687 -9.536e-013 0)
(13.9634 2.97308e-012 0)
(2.44605 -1.49984e-012 0)
(0.433342 7.43115e-013 0)
(0.0795841 -2.82083e-012 0)
(0.0151446 1.55399e-012 0)
(0.0029769 5.0903e-012 0)
(0.000604513 3.76819e-012 0)
(0.000126851 4.98987e-012 0)
(2.75024e-005 7.41953e-012 0)
(6.1594e-006 -3.69599e-011 0)
(1.43904e-006 6.48578e-012 0)
(2.89959e-007 -3.66454e-010 0)
(2.50933e-012 4.89461e-012 0)
(3.48606e-012 2.59028e-012 0)
(1.75759e-011 3.81087e-012 0)
(1.36791e-010 -1.06086e-012 0)
(1.34392e-009 -2.91281e-012 0)
(1.4055e-008 -7.32759e-012 0)
(1.16997e-007 -3.28621e-012 0)
(1.03833e-006 -7.10386e-012 0)
(7.49095e-006 5.22668e-013 0)
(5.56188e-005 3.04551e-012 0)
(0.000343479 1.42188e-011 0)
(0.00210255 2.80262e-013 0)
(0.0109273 8.64896e-012 0)
(0.0539761 2.99873e-012 0)
(0.228952 4.36145e-012 0)
(0.857847 1.77717e-012 0)
(2.68056 2.03145e-012 0)
(7.21275 -4.76024e-013 0)
(16.5171 -1.94639e-012 0)
(32.5344 2.35836e-012 0)
(55.4194 -9.81729e-013 0)
(82.4554 5.14792e-012 0)
(111.425 -6.30779e-013 0)
(139.686 -5.01395e-012 0)
(166.605 -5.85889e-012 0)
(191.533 -1.77433e-012 0)
(214.844 -4.00821e-012 0)
(235.14 -3.26298e-012 0)
(252.157 -5.74117e-013 0)
(266.7 1.86223e-012 0)
(277.13 3.37666e-012 0)
(284.364 3.02931e-012 0)
(290.712 8.72381e-012 0)
(296.383 1.08234e-011 0)
(299.541 3.86671e-012 0)
(299.292 5.73598e-012 0)
(296.56 2.08822e-011 0)
(292.708 1.97909e-012 0)
(288.621 8.34452e-012 0)
(284.782 2.81976e-011 0)
(281.975 2.56084e-011 0)
(280.219 3.46379e-011 0)
(278.563 1.21895e-011 0)
(275.528 -6.38229e-012 0)
(268.036 -1.76798e-011 0)
(248.426 -2.915e-012 0)
(188.628 -3.98889e-011 0)
(75.687 2.71361e-012 0)
(13.9634 5.0344e-012 0)
(2.44605 -1.08261e-012 0)
(0.433342 2.02373e-012 0)
(0.0795841 -2.37643e-012 0)
(0.0151446 1.28516e-012 0)
(0.0029769 3.22097e-012 0)
(0.000604513 4.21349e-012 0)
(0.000126851 4.64484e-012 0)
(2.75024e-005 8.05691e-012 0)
(6.1594e-006 -4.65239e-011 0)