/*--------------------------------*- C++ -*----------------------------------*\
| =========                 |                                                 |
| \\      /  F ield         | OpenFOAM: The Open Source CFD Toolbox           |
|  \\    /   O peration     | Version:  5.x                                   |
|   \\  /    A nd           | Web:      www.OpenFOAM.org                      |
|    \\/     M anipulation  |                                                 |
\*---------------------------------------------------------------------------*/
/*   Windows 32 and 64 bit porting by blueCAPE: http://www.bluecape.com.pt   *\
|  Based on Windows porting (2.0.x v4) by Symscape: http://www.symscape.com   |
\*---------------------------------------------------------------------------*/
FoamFile
{
    version     2.0;
    format      ascii;
    class       volScalarField;
    location    "0.0035";
    object      mag(U);
}
// * * * * * * * * * * * * * * * * * * * * * * * * * * * * * * * * * * * * * //

dimensions      [0 1 -1 0 0 0 0];

internalField   nonuniform List<scalar> 
100
(
9.13469e-006
7.85697e-005
0.000556891
0.00371527
0.0223839
0.124009
0.603372
2.58982
9.2286
26.1707
58.2304
105.957
162.964
212.26
257.85
298.145
314.141
284.665
224.268
120.518
6.70869e-006
5.6702e-005
0.000392346
0.00258846
0.0153046
0.0846214
0.408991
1.78334
6.51257
19.4813
45.375
86.383
139.421
185.11
231.077
279.675
318.216
322.595
270.967
148.535
115.204
93.689
85.4877
77.9506
68.6447
59.5692
51.3137
43.7981
37.0295
31.0401
25.8232
21.3415
17.5382
14.3438
11.6839
9.48413
7.67477
6.19147
4.99044
3.87027
0.113233
0.0432133
0.0162856
0.00602737
0.00216644
0.000774162
0.000270885
9.27171e-005
3.05273e-005
9.68423e-006
2.96618e-006
8.78507e-007
2.51967e-007
7.00891e-008
1.89369e-008
4.97649e-009
1.27381e-009
3.17782e-010
7.72089e-011
1.52489e-011
2.30598
0.908582
0.359003
0.135762
0.0498931
0.0176533
0.00603287
0.00198792
0.000632539
0.000194444
5.78227e-005
1.66525e-005
4.65065e-006
1.26107e-006
3.32431e-007
8.52961e-008
2.1327e-008
5.20181e-009
1.23874e-009
2.3646e-010
)
;

boundaryField
{
    inlet
    {
        type            calculated;
        value           nonuniform List<scalar> 2(6.70869e-006 9.13469e-006);
    }
    outlet
    {
        type            calculated;
        value           nonuniform List<scalar> 2(2.3646e-010 1.52489e-011);
    }
    bottom
    {
        type            symmetryPlane;
    }
    top
    {
        type            symmetryPlane;
    }
    obstacle
    {
        type            calculated;
        value           nonuniform List<scalar> 
22
(
120.518
0.113233
115.204
93.689
85.4877
77.9506
68.6447
59.5692
51.3137
43.7981
37.0295
31.0401
25.8232
21.3415
17.5382
14.3438
11.6839
9.48413
7.67477
6.19147
4.99044
3.87027
)
;
    }
    defaultFaces
    {
        type            empty;
    }
}


// ************************************************************************* //
