/*--------------------------------*- C++ -*----------------------------------*\
| =========                 |                                                 |
| \\      /  F ield         | OpenFOAM: The Open Source CFD Toolbox           |
|  \\    /   O peration     | Version:  5.x                                   |
|   \\  /    A nd           | Web:      www.OpenFOAM.org                      |
|    \\/     M anipulation  |                                                 |
\*---------------------------------------------------------------------------*/
/*   Windows 32 and 64 bit porting by blueCAPE: http://www.bluecape.com.pt   *\
|  Based on Windows porting (2.0.x v4) by Symscape: http://www.symscape.com   |
\*---------------------------------------------------------------------------*/
FoamFile
{
    version     2.0;
    format      ascii;
    class       volScalarField;
    location    "0.0035";
    object      p;
}
// * * * * * * * * * * * * * * * * * * * * * * * * * * * * * * * * * * * * * //

dimensions      [1 -1 -2 0 0 0 0];

internalField   nonuniform List<scalar> 
100
(
100000
100000
99999.8
99998.8
99992.6
99959.1
99794.6
99107
96694.5
90335
78997.7
64020.4
49276.4
37101.2
27877
22852
19730.4
18904.7
17315.9
12913.6
100000
100000
99999.9
99999.2
99994.9
99972.4
99861.4
99397.6
97722.4
93021.9
83940.1
71282.5
58453.1
47084.7
39124.4
35581.7
34928.5
33649.2
28542.9
16492.7
14961.8
14709.7
14182.8
13616.1
13115.8
12669.9
12266.8
11907.5
11592.5
11320.3
11087.9
10891.8
10728
10592.2
10480.5
10389
10314.5
10254
10205.1
10165.4
10001.4
10000.5
10000.3
10000.1
10000.1
10000
10000
10000
10000
10000
10000
10000
10000
10000
10000
10000
10000
10000
10000
10000
10086.7
10035.1
10013.7
10005.2
10001.9
10000.7
10000.2
10000.1
10000
10000
10000
10000
10000
10000
10000
10000
10000
10000
10000
10000
)
;

boundaryField
{
    inlet
    {
        type            zeroGradient;
    }
    outlet
    {
        type            zeroGradient;
    }
    bottom
    {
        type            symmetryPlane;
    }
    top
    {
        type            symmetryPlane;
    }
    obstacle
    {
        type            zeroGradient;
    }
    defaultFaces
    {
        type            empty;
    }
}


// ************************************************************************* //
