/*--------------------------------*- C++ -*----------------------------------*\
| =========                 |                                                 |
| \\      /  F ield         | OpenFOAM: The Open Source CFD Toolbox           |
|  \\    /   O peration     | Version:  5.x                                   |
|   \\  /    A nd           | Web:      www.OpenFOAM.org                      |
|    \\/     M anipulation  |                                                 |
\*---------------------------------------------------------------------------*/
/*   Windows 32 and 64 bit porting by blueCAPE: http://www.bluecape.com.pt   *\
|  Based on Windows porting (2.0.x v4) by Symscape: http://www.symscape.com   |
\*---------------------------------------------------------------------------*/
FoamFile
{
    version     2.0;
    format      ascii;
    class       surfaceScalarField;
    location    "0.0035";
    object      phi;
}
// * * * * * * * * * * * * * * * * * * * * * * * * * * * * * * * * * * * * * //

dimensions      [1 0 -1 0 0 0 0];

internalField   nonuniform List<scalar> 
137
(
4.53137e-005
2.02906e-007
0.000322953
1.99014e-006
0.00213928
1.67501e-005
0.0129475
0.000130085
0.0717609
0.000923268
0.354789
0.00604562
1.55085
0.034553
5.79585
0.173803
17.8697
0.714023
41.5982
2.25317
71.343
5.33856
94.4395
9.76961
104.709
14.0075
100.821
18.0762
85.2405
18.4642
64.5928
16.9642
46.5951
13.4349
34.6822
11.2157
20.784
9.76313
5.19025
5.73012e-005
0.000421963
0.0029094
0.0183116
0.10658
0.554852
2.58813
10.441
35.4619
94.9101
186.303
285.468
365.981
406.874
407.9
381.49
362.221
325.013
156.077
67.9818
59.3354
51.0834
43.7282
37.2068
31.4141
26.2889
21.8134
17.9614
14.6897
11.9442
9.66464
7.78916
6.25757
5.01418
4.00927
3.19974
2.54902
2.02662
1.60734
1.27145
-0.000484402
-0.00669042
0.000268877
-0.00259806
0.000262681
-0.000985145
0.000168646
-0.000359761
8.47484e-005
-0.000127057
3.74449e-005
-4.32449e-005
1.4851e-005
-1.42152e-005
5.44995e-006
-4.51488e-006
1.88607e-006
-1.38685e-006
6.21018e-007
-4.12116e-007
1.95697e-007
-1.1857e-007
5.92743e-008
-3.30605e-008
1.73146e-008
-8.94283e-009
4.89126e-009
-2.34926e-009
1.33937e-009
-5.99982e-010
3.56218e-010
-1.49124e-010
9.2184e-011
-3.61054e-011
2.3201e-011
-8.52249e-012
5.57776e-012
-1.96415e-012
-4.17527e-013
0.512457
0.201132
0.0767445
0.0283271
0.0101008
0.00347397
0.00115243
0.000368843
0.000113994
3.4055e-005
9.84615e-006
2.75858e-006
7.49889e-007
1.9804e-007
5.08736e-008
1.27273e-008
3.10442e-009
7.38748e-010
1.69095e-010
)
;

boundaryField
{
    inlet
    {
        type            calculated;
        value           nonuniform List<scalar> 2(-1.14291e-005 -9.31705e-006);
    }
    outlet
    {
        type            calculated;
        value           nonuniform List<scalar> 2(3.39227e-011 1.09916e-012);
    }
    bottom
    {
        type            symmetryPlane;
        value           uniform 0;
    }
    top
    {
        type            symmetryPlane;
        value           uniform 0;
    }
    obstacle
    {
        type            calculated;
        value           nonuniform List<scalar> 
22
(
11.7701
0.00283631
0.606379
0.458993
0.382396
0.331457
0.281347
0.234723
0.19417
0.159473
0.130101
0.105565
0.0853112
0.0687443
0.0552856
0.0444034
0.0356302
0.0285686
0.0228877
0.018314
0.0146621
0.0113157
)
;
    }
    defaultFaces
    {
        type            empty;
        value           nonuniform 0();
    }
}


// ************************************************************************* //
