/*--------------------------------*- C++ -*----------------------------------*\
| =========                 |                                                 |
| \\      /  F ield         | OpenFOAM: The Open Source CFD Toolbox           |
|  \\    /   O peration     | Version:  5.x                                   |
|   \\  /    A nd           | Web:      www.OpenFOAM.org                      |
|    \\/     M anipulation  |                                                 |
\*---------------------------------------------------------------------------*/
/*   Windows 32 and 64 bit porting by blueCAPE: http://www.bluecape.com.pt   *\
|  Based on Windows porting (2.0.x v4) by Symscape: http://www.symscape.com   |
\*---------------------------------------------------------------------------*/
FoamFile
{
    version     2.0;
    format      ascii;
    class       volVectorField;
    location    "0.0035";
    object      U;
}
// * * * * * * * * * * * * * * * * * * * * * * * * * * * * * * * * * * * * * //

dimensions      [0 1 -1 0 0 0 0];

internalField   nonuniform List<vector> 
100
(
(9.13456e-006 4.85142e-008 0)
(7.85535e-005 1.59444e-006 1.65613e-017)
(0.000556488 2.11843e-005 -8.58737e-018)
(0.0037092 0.000212316 0)
(0.0223169 0.00173037 0)
(0.123399 0.0122795 9.65927e-018)
(0.598878 0.0735055 5.0218e-017)
(2.56203 0.378362 -6.59564e-019)
(9.09269 1.57799 -3.31547e-017)
(25.664 5.12491 1.12071e-017)
(56.7614 12.997 -8.06201e-017)
(102.538 26.7018 8.60008e-017)
(156.459 45.5839 0)
(202.026 65.1137 5.82252e-017)
(244.217 82.7339 -1.02962e-016)
(282.187 96.2355 8.23655e-017)
(297.542 100.765 -1.32359e-016)
(266.675 99.5938 0)
(200.932 99.6128 -1.49462e-016)
(101.308 65.2782 1.59314e-016)
(6.7064e-006 -1.74958e-007 -9.3366e-018)
(5.66642e-005 -2.07028e-006 9.15232e-018)
(0.000391884 -1.90273e-005 -2.24379e-017)
(0.00258377 -0.000155726 5.28277e-017)
(0.0152646 -0.00110588 -3.45627e-017)
(0.0843221 -0.00711141 -3.81476e-017)
(0.407084 -0.0394439 2.91576e-017)
(1.77279 -0.193682 0)
(6.46449 -0.78987 5.82167e-017)
(19.3054 -2.61206 -6.66944e-017)
(44.9023 -6.53239 -5.37299e-017)
(85.389 -13.0669 1.10618e-016)
(137.742 -21.5752 -5.55941e-017)
(182.955 -28.1628 8.11188e-017)
(228.317 -35.6089 -8.99031e-017)
(275.918 -45.6835 -8.92482e-017)
(313.32 -55.6055 1.0866e-016)
(317.521 -56.9888 -1.05559e-016)
(267.139 -45.3877 3.16248e-016)
(146.632 -23.6967 -2.70641e-016)
(113.865 -17.509 0)
(92.6769 -13.7338 1.06678e-015)
(84.5931 -12.3351 -2.24339e-015)
(77.1354 -11.2442 1.1746e-015)
(67.9184 -9.9592 0)
(58.9291 -8.70925 0)
(50.7532 -7.5636 1.22258e-015)
(43.3118 -6.50869 -2.5444e-015)
(36.6116 -5.54757 1.31539e-015)
(30.6841 -4.68781 0)
(25.5222 -3.93123 0)
(21.0888 -3.27496 1.36341e-015)
(17.3271 -2.7128 -2.79722e-015)
(14.1684 -2.23641 1.42672e-015)
(11.5387 -1.83624 0)
(9.36437 -1.50246 0)
(7.57628 -1.2256 1.47084e-015)
(6.11072 -0.996702 -2.98921e-015)
(4.92429 -0.809882 1.51335e-015)
(3.81814 -0.633093 0)
(0.0221742 -0.11104 2.51503e-016)
(0.0169302 -0.0397588 -4.91912e-016)
(0.00633602 -0.0150025 2.40637e-016)
(0.00298401 -0.00523687 2.35539e-016)
(0.00121293 -0.00179507 -2.30659e-016)
(0.000508055 -0.00058413 2.25974e-016)
(0.000198102 -0.000184754 -2.21478e-016)
(7.32789e-005 -5.68037e-005 -2.17156e-016)
(2.52684e-005 -1.71296e-005 4.26e-016)
(8.26208e-006 -5.05197e-006 -2.09e-016)
(2.58484e-006 -1.45494e-006 2.05147e-016)
(7.77423e-007 -4.09129e-007 -4.02869e-016)
(2.25533e-007 -1.12348e-007 2.9678e-016)
(6.32785e-008 -3.01381e-008 -3.77761e-026)
(1.72099e-008 -7.901e-009 -9.553e-017)
(4.54571e-009 -2.02532e-009 9.39177e-017)
(1.16821e-009 -5.07814e-010 -1.38538e-016)
(2.92353e-010 -1.2456e-010 8.98915e-029)
(7.11913e-011 -2.98835e-011 4.46958e-017)
(1.36164e-011 -6.86469e-012 0)
(2.25519 -0.481333 -3.53521e-016)
(0.889773 -0.183917 7.14583e-016)
(0.352245 -0.0693304 -7.19835e-016)
(0.133431 -0.0250517 3.62844e-016)
(0.0491192 -0.00875383 0)
(0.0174069 -0.00293896 0)
(0.00595767 -0.000949597 1.85874e-016)
(0.00196592 -0.000294901 -5.62321e-016)
(0.000626377 -8.80782e-005 3.78065e-016)
(0.000192791 -2.52981e-005 0)
(5.73986e-005 -6.99077e-006 0)
(1.65485e-005 -1.85879e-006 0)
(4.62628e-006 -4.75555e-007 -9.78395e-017)
(1.25562e-006 -1.17013e-007 1.97415e-016)
(3.31279e-007 -2.76615e-008 -9.95905e-017)
(8.50654e-008 -6.26991e-009 1.0049e-016)
(2.12837e-008 -1.35787e-009 -5.07027e-017)
(5.19432e-009 -2.79191e-010 -1.02338e-016)
(1.23757e-009 -5.39271e-011 5.16438e-017)
(2.36272e-010 -9.43291e-012 0)
)
;

boundaryField
{
    inlet
    {
        type            zeroGradient;
    }
    outlet
    {
        type            zeroGradient;
    }
    bottom
    {
        type            symmetryPlane;
    }
    top
    {
        type            symmetryPlane;
    }
    obstacle
    {
        type            zeroGradient;
    }
    defaultFaces
    {
        type            empty;
    }
}


// ************************************************************************* //
