/*--------------------------------*- C++ -*----------------------------------*\
| =========                 |                                                 |
| \\      /  F ield         | OpenFOAM: The Open Source CFD Toolbox           |
|  \\    /   O peration     | Version:  5.x                                   |
|   \\  /    A nd           | Web:      www.OpenFOAM.org                      |
|    \\/     M anipulation  |                                                 |
\*---------------------------------------------------------------------------*/
/*   Windows 32 and 64 bit porting by blueCAPE: http://www.bluecape.com.pt   *\
|  Based on Windows porting (2.0.x v4) by Symscape: http://www.symscape.com   |
\*---------------------------------------------------------------------------*/
FoamFile
{
    version     2.0;
    format      ascii;
    class       volScalarField;
    location    "0.008";
    object      mag(U);
}
// * * * * * * * * * * * * * * * * * * * * * * * * * * * * * * * * * * * * * //

dimensions      [0 1 -1 0 0 0 0];

internalField   nonuniform List<scalar> 
1000
(
5.92307e-012
5.52548e-012
5.54049e-012
5.10199e-012
5.14642e-012
4.59332e-012
4.71189e-012
4.33874e-012
4.64766e-012
4.22782e-012
4.33425e-012
4.26318e-012
3.9659e-012
4.10153e-012
3.98918e-012
3.89649e-012
3.94305e-012
4.14265e-012
3.74757e-012
3.72778e-012
3.58382e-012
3.78954e-012
3.35323e-012
3.79613e-012
3.69039e-012
4.68904e-012
6.29678e-012
1.26436e-011
2.61796e-011
5.95556e-011
1.33388e-010
3.03144e-010
6.80336e-010
1.51911e-009
3.35753e-009
7.35616e-009
1.59603e-008
3.42935e-008
7.29527e-008
1.53628e-007
3.202e-007
6.60409e-007
1.3476e-006
2.72008e-006
5.42978e-006
1.07169e-005
2.09095e-005
4.03184e-005
7.68135e-005
0.000144554
0.000268636
0.000492843
0.000892339
0.00159399
0.00280815
0.00487728
0.00834802
0.0140753
0.0233672
0.0381792
0.061363
0.0969667
0.150573
0.229641
0.3438
0.505013
0.727531
1.02754
1.42244
1.92983
2.56615
3.34534
4.27754
5.36825
6.61789
8.02192
9.57136
11.2542
13.0571
14.9662
16.9685
19.052
21.2058
23.4205
25.688
28.0014
30.3548
32.7433
35.1626
37.6091
40.08
42.5725
45.0845
47.6141
50.1597
52.7199
55.2935
57.8793
60.4766
63.0843
65.7018
68.3285
70.9638
73.6071
76.258
78.916
81.5808
84.252
86.9293
89.6124
92.3011
94.995
97.694
100.398
103.106
105.819
108.536
111.258
113.983
116.712
119.444
122.18
124.919
127.662
130.407
133.156
135.907
138.66
141.416
144.175
146.936
149.698
152.463
155.229
157.997
160.766
163.537
166.309
169.082
171.857
174.631
177.408
180.183
182.96
185.736
188.514
191.29
194.066
196.842
199.616
202.39
205.162
207.933
210.703
213.47
216.236
219
221.762
224.52
227.277
230.031
232.781
235.529
238.273
241.014
243.75
246.483
249.212
251.935
254.655
257.369
260.078
262.782
265.479
268.171
270.857
273.535
276.207
278.87
281.527
284.174
286.813
289.441
292.061
294.669
297.266
299.852
302.424
304.983
307.527
310.056
312.568
315.062
317.538
319.992
322.424
324.833
327.215
329.57
331.895
334.187
336.444
338.663
340.841
342.974
345.057
347.089
349.062
350.973
352.814
354.58
356.263
357.854
359.345
360.724
361.979
363.097
364.062
364.861
365.475
365.891
366.091
366.064
365.807
365.349
364.715
363.905
362.926
361.765
360.394
358.776
356.855
354.54
351.681
348.141
343.876
338.928
333.453
327.715
322.095
316.957
312.506
308.846
305.975
303.772
302.101
300.835
299.866
299.113
298.517
298.034
297.635
297.298
297.013
296.77
296.564
296.387
296.233
296.09
295.947
295.793
295.612
295.384
295.062
294.531
293.507
291.456
287.373
279.337
264.157
243.064
227.869
224.261
226.325
229.516
233.525
236.806
238.417
238.774
238.619
238.351
238.051
237.884
237.877
238.009
238.379
238.981
239.701
240.557
241.577
242.788
243.74
244.52
245.644
246.807
247.798
248.533
248.915
248.924
248.28
7.31348e-012
7.27717e-012
6.43118e-012
6.97591e-012
6.6781e-012
5.15455e-012
7.1297e-012
4.67565e-012
7.91334e-012
4.38253e-012
7.90612e-012
4.54352e-012
6.74974e-012
4.98879e-012
5.50078e-012
4.70037e-012
5.64946e-012
5.23784e-012
4.96319e-012
4.74002e-012
4.82702e-012
5.46433e-012
4.32498e-012
5.89234e-012
3.97333e-012
6.34183e-012
4.22828e-012
7.78843e-012
8.8336e-012
1.71967e-011
3.622e-011
7.49743e-011
1.66859e-010
3.59187e-010
7.83707e-010
1.68281e-009
3.59649e-009
7.59802e-009
1.5907e-008
3.29492e-008
6.75549e-008
1.37013e-007
2.74882e-007
5.45326e-007
1.06955e-006
2.07328e-006
3.97103e-006
7.51278e-006
1.40349e-005
2.58804e-005
4.70893e-005
8.45044e-005
0.0001495
0.000260609
0.000447383
0.000755853
0.0012559
0.00205062
0.00328714
0.00516756
0.00795656
0.0119802
0.0176067
0.025196
0.0350032
0.0470212
0.0607634
0.0750352
0.0879033
0.097667
0.107538
0.136324
0.215005
0.367603
0.613728
0.972759
1.46408
2.10333
2.90017
3.85738
4.97051
6.23028
7.62426
9.13835
10.758
12.4688
14.2577
16.1131
18.0256
19.9867
21.9894
24.028
26.0978
28.1949
30.3163
32.459
34.6209
36.8004
38.9959
41.206
43.4298
45.6661
47.9142
50.1734
52.4429
54.7221
57.0104
59.3074
61.6127
63.9256
66.2459
68.5731
70.9069
73.2468
75.5925
77.9437
80.3001
82.6613
85.0272
87.3974
89.7716
92.1497
94.5314
96.9165
99.3047
101.696
104.09
106.486
108.885
111.287
113.69
116.095
118.503
120.911
123.322
125.734
128.147
130.562
132.978
135.394
137.812
140.231
142.65
145.07
147.49
149.911
152.332
154.754
157.175
159.597
162.018
164.44
166.86
169.281
171.699
174.119
176.537
178.953
181.369
183.783
186.195
188.605
191.012
193.417
195.82
198.218
200.613
203.005
205.391
207.772
210.149
212.519
214.882
217.238
219.586
221.925
224.255
226.573
228.88
231.174
233.454
235.718
237.965
240.193
242.401
244.586
246.746
248.88
250.983
253.055
255.091
257.088
259.045
260.956
262.818
264.629
266.383
268.078
269.71
271.276
272.772
274.197
275.548
276.825
278.026
279.152
280.206
281.188
282.103
282.955
283.748
284.488
285.18
285.831
286.445
287.028
287.585
288.12
288.636
289.135
289.62
290.091
290.551
290.997
291.43
291.848
292.251
292.642
293.024
293.397
293.757
294.099
294.421
294.726
295.025
295.345
295.742
296.315
297.098
297.986
298.856
299.637
300.305
300.863
301.333
301.733
302.078
302.381
302.647
302.881
303.087
303.269
303.429
303.571
303.698
303.811
303.913
304.005
304.088
304.164
304.232
304.295
304.353
304.406
304.457
304.507
304.565
304.64
304.743
304.881
305.047
305.213
305.377
305.551
305.739
305.949
306.181
306.429
306.68
306.922
307.144
307.341
307.512
307.667
307.817
307.978
308.167
308.407
308.728
309.157
309.704
310.376
311.179
312.156
313.165
314.187
315.735
317.263
318.897
321.943
322.415
323.019
323.516
323.978
324.214
324.254
324.481
324.63
324.788
324.92
325.035
325.112
325.195
325.246
325.307
325.367
325.411
325.522
325.554
325.639
325.699
325.731
325.797
325.817
325.893
325.927
325.995
326.059
326.111
326.186
326.249
326.322
326.37
326.426
326.488
326.541
326.605
326.651
326.659
326.675
326.704
326.724
326.662
326.641
326.577
326.531
326.489
326.452
326.417
326.379
326.338
326.291
326.239
326.18
326.114
326.039
325.957
325.866
325.767
325.659
325.543
325.418
325.285
325.143
324.993
324.835
324.669
324.495
324.313
324.125
323.93
323.729
323.522
323.31
323.093
322.872
322.647
322.419
322.188
321.954
321.718
321.48
321.24
320.999
320.757
320.514
320.27
320.025
319.78
319.534
319.288
319.041
318.794
318.547
318.3
318.052
317.806
317.559
317.311
317.085
281.805
282.448
283.479
284.227
284.58
284.845
285.163
285.507
285.834
286.133
286.405
286.65
286.864
287.047
287.198
287.319
287.413
287.482
287.529
287.552
287.551
287.521
287.457
287.352
287.197
286.983
286.7
286.336
285.882
285.325
284.656
283.87
282.959
281.922
280.746
279.395
277.946
276.485
274.935
273.282
271.599
269.916
268.264
266.668
265.153
263.739
262.44
261.267
260.224
259.307
258.508
257.817
257.225
256.716
256.279
255.9
255.567
255.268
254.994
254.737
254.495
254.265
254.043
253.822
253.596
253.362
253.116
252.857
252.583
252.293
251.988
251.668
251.332
250.979
250.61
250.224
249.82
249.399
248.959
248.498
248.016
247.51
246.978
246.419
245.83
245.208
244.55
243.853
243.114
242.329
241.498
240.621
239.698
238.729
237.714
236.654
235.55
234.397
233.186
231.88
230.394
228.544
225.962
221.989
215.56
205.257
189.728
168.568
143.212
116.814
92.6536
72.4331
56.078
42.7112
31.5131
21.9953
14.1571
8.5645
4.87792
2.27501
0.805436
0.230229
0.0563814
0.0129715
0.00293488
0.000657743
0.000146053
3.21412e-005
7.01481e-006
1.51965e-006
3.27061e-007
6.99862e-008
1.49006e-008
3.15728e-009
6.65474e-010
1.38409e-010
2.7061e-011
3.95992e-012
1.13768e-012
1.68559e-012
2.51879e-012
2.07749e-012
2.64805e-012
2.03634e-012
2.39408e-012
2.22178e-012
2.4689e-012
1.78717e-012
2.32975e-012
2.30712e-012
316.021
315.586
315.273
314.932
314.536
314.096
313.631
313.154
312.674
312.193
311.71
311.225
310.735
310.239
309.736
309.224
308.705
308.178
307.646
307.111
306.575
306.043
305.517
305.003
304.502
304.017
303.551
303.105
302.681
302.277
301.895
301.535
301.196
300.88
300.59
300.327
300.094
299.894
299.729
299.598
299.503
299.443
299.419
299.428
299.47
299.539
299.628
299.734
299.859
300.001
300.157
300.32
300.509
300.727
300.945
301.16
301.38
301.605
301.827
302.056
302.28
302.482
302.673
302.854
303.019
303.165
303.293
303.401
303.489
303.555
303.597
303.618
303.621
303.609
303.583
303.544
303.494
303.437
303.373
303.305
303.235
303.164
303.094
303.026
302.962
302.901
302.844
302.792
302.743
302.698
302.655
302.613
302.571
302.528
302.485
302.442
302.402
302.364
302.332
302.305
302.286
302.274
302.268
302.264
302.253
302.227
302.174
302.083
301.92
301.616
301.146
300.563
299.914
299.114
297.932
295.956
292.346
284.901
266.083
213.598
118.859
40.2494
9.8914
2.06462
0.399107
0.0755139
0.0142176
0.00267347
0.000502433
9.43834e-005
1.77232e-005
3.32682e-006
6.24257e-007
1.17099e-007
2.19563e-008
4.11488e-009
7.68707e-010
1.4303e-010
2.29628e-011
4.68013e-012
4.62516e-012
2.60421e-013
5.64498e-012
2.16857e-012
4.66102e-012
3.5593e-012
3.47384e-012
5.08871e-012
3.57317e-012
4.15246e-012
)
;

boundaryField
{
    inlet
    {
        type            calculated;
        value           nonuniform List<scalar> 2(7.31348e-012 5.92307e-012);
    }
    outlet
    {
        type            calculated;
        value           nonuniform List<scalar> 2(4.15246e-012 2.30712e-012);
    }
    bottom
    {
        type            symmetryPlane;
    }
    top
    {
        type            symmetryPlane;
    }
    obstacle
    {
        type            calculated;
        value           nonuniform List<scalar> 
102
(
248.28
281.805
322.415
323.019
323.516
323.978
324.214
324.254
324.481
324.63
324.788
324.92
325.035
325.112
325.195
325.246
325.307
325.367
325.411
325.522
325.554
325.639
325.699
325.731
325.797
325.817
325.893
325.927
325.995
326.059
326.111
326.186
326.249
326.322
326.37
326.426
326.488
326.541
326.605
326.651
326.659
326.675
326.704
326.724
326.662
326.641
326.577
326.531
326.489
326.452
326.417
326.379
326.338
326.291
326.239
326.18
326.114
326.039
325.957
325.866
325.767
325.659
325.543
325.418
325.285
325.143
324.993
324.835
324.669
324.495
324.313
324.125
323.93
323.729
323.522
323.31
323.093
322.872
322.647
322.419
322.188
321.954
321.718
321.48
321.24
320.999
320.757
320.514
320.27
320.025
319.78
319.534
319.288
319.041
318.794
318.547
318.3
318.052
317.806
317.559
317.311
317.085
)
;
    }
    defaultFaces
    {
        type            empty;
    }
}


// ************************************************************************* //
