/*--------------------------------*- C++ -*----------------------------------*\
| =========                 |                                                 |
| \\      /  F ield         | OpenFOAM: The Open Source CFD Toolbox           |
|  \\    /   O peration     | Version:  5.x                                   |
|   \\  /    A nd           | Web:      www.OpenFOAM.org                      |
|    \\/     M anipulation  |                                                 |
\*---------------------------------------------------------------------------*/
/*   Windows 32 and 64 bit porting by blueCAPE: http://www.bluecape.com.pt   *\
|  Based on Windows porting (2.0.x v4) by Symscape: http://www.symscape.com   |
\*---------------------------------------------------------------------------*/
FoamFile
{
    version     2.0;
    format      ascii;
    class       volScalarField;
    location    "0.008";
    object      T;
}
// * * * * * * * * * * * * * * * * * * * * * * * * * * * * * * * * * * * * * //

dimensions      [0 0 0 1 0 0 0];

internalField   nonuniform List<scalar> 
1000
(
348.432
348.432
348.432
348.432
348.432
348.432
348.432
348.432
348.432
348.432
348.432
348.432
348.432
348.432
348.432
348.432
348.432
348.432
348.432
348.432
348.432
348.432
348.432
348.432
348.432
348.432
348.432
348.432
348.432
348.432
348.432
348.432
348.432
348.432
348.432
348.432
348.432
348.432
348.432
348.432
348.432
348.432
348.432
348.432
348.432
348.432
348.432
348.432
348.432
348.432
348.432
348.432
348.432
348.431
348.431
348.43
348.429
348.427
348.423
348.418
348.409
348.396
348.377
348.347
348.305
348.245
348.163
348.052
347.905
347.716
347.479
347.189
346.841
346.434
345.968
345.444
344.867
344.239
343.568
342.858
342.114
341.341
340.543
339.724
338.886
338.033
337.166
336.287
335.398
334.5
333.595
332.683
331.765
330.841
329.913
328.98
328.044
327.104
326.161
325.215
324.266
323.315
322.362
321.406
320.449
319.49
318.529
317.566
316.602
315.636
314.669
313.7
312.731
311.76
310.788
309.815
308.841
307.865
306.889
305.912
304.934
303.956
302.976
301.995
301.014
300.032
299.05
298.066
297.082
296.098
295.113
294.127
293.141
292.154
291.166
290.18
289.188
288.208
287.202
286.246
285.198
284.304
283.174
282.365
281.172
280.366
279.257
278.288
277.365
276.272
275.349
274.368
273.324
272.366
271.418
270.355
269.401
268.463
267.395
266.458
265.48
264.476
263.515
262.497
261.572
260.577
259.555
258.651
257.635
256.68
255.709
254.709
253.816
252.786
251.852
250.893
249.916
249.02
247.993
247.1
246.128
245.194
244.284
243.289
242.421
241.444
240.565
239.636
238.703
237.836
236.884
236.054
235.117
234.27
233.384
232.51
231.692
230.805
230.026
229.15
228.383
227.559
226.793
226.037
225.269
224.571
223.821
223.175
222.475
221.871
221.243
220.672
220.127
219.608
219.157
218.714
218.365
218.023
217.779
217.567
217.44
217.389
217.399
217.508
217.673
217.906
218.189
218.525
218.914
219.358
219.892
220.508
221.266
222.193
223.364
224.8
226.491
228.382
230.388
232.395
234.253
235.906
237.343
238.527
239.485
240.269
240.914
241.457
241.915
242.307
242.66
242.97
243.251
243.5
243.714
243.915
244.082
244.236
244.372
244.483
244.583
244.692
244.8
244.938
245.149
245.557
246.391
248.073
251.509
257.535
267.886
276.589
278.704
277.86
276.097
274.141
272.761
271.575
271.368
271.469
271.468
271.4
271.392
271.402
271.352
271.058
270.452
270.013
269.941
270.441
273.466
283.605
301.618
320.655
340.797
358.592
375.74
389.882
400.03
411.913
348.432
348.432
348.432
348.432
348.432
348.432
348.432
348.432
348.432
348.432
348.432
348.432
348.432
348.432
348.432
348.432
348.432
348.432
348.432
348.432
348.432
348.432
348.432
348.432
348.432
348.432
348.432
348.432
348.432
348.432
348.432
348.432
348.432
348.432
348.432
348.432
348.432
348.432
348.432
348.432
348.432
348.432
348.432
348.432
348.432
348.432
348.432
348.432
348.432
348.432
348.432
348.432
348.432
348.432
348.432
348.432
348.432
348.433
348.433
348.434
348.435
348.436
348.438
348.441
348.444
348.448
348.453
348.457
348.459
348.457
348.448
348.427
348.389
348.328
348.235
348.101
347.918
347.68
347.383
347.026
346.612
346.144
345.627
345.065
344.466
343.833
343.173
342.489
341.785
341.064
340.329
339.582
338.825
338.06
337.286
336.506
335.721
334.93
334.135
333.335
332.532
331.726
330.917
330.105
329.29
328.474
327.655
326.834
326.012
325.189
324.363
323.537
322.71
321.882
321.052
320.223
319.392
318.561
317.73
316.899
316.067
315.235
314.403
313.572
312.74
311.909
311.078
310.247
309.417
308.587
307.757
306.929
306.1
305.273
304.446
303.62
302.794
301.97
301.146
300.323
299.5
298.681
297.858
297.043
296.219
295.411
294.58
293.789
292.936
292.186
291.275
290.614
289.598
289.045
287.969
287.39
286.46
285.651
284.964
284.023
283.297
282.54
281.643
280.913
280.155
279.285
278.528
277.794
276.955
276.16
275.441
274.653
273.838
273.094
272.36
271.574
270.792
270.062
269.338
268.571
267.813
267.1
266.392
265.665
264.93
264.232
263.559
262.874
262.184
261.508
260.87
260.246
259.616
258.993
258.392
257.83
257.283
256.742
256.213
255.71
255.248
254.808
254.386
253.971
253.584
253.235
252.915
252.614
252.317
252.039
251.789
251.56
251.349
251.145
250.94
250.744
250.562
250.395
250.241
250.072
249.902
249.736
249.587
249.444
249.314
249.158
249.013
248.868
248.75
248.627
248.521
248.394
248.278
248.158
248.061
247.951
247.804
247.598
247.294
246.966
246.665
246.406
246.185
245.995
245.825
245.67
245.527
245.397
245.281
245.182
245.098
245.022
244.95
244.876
244.806
244.743
244.686
244.638
244.6
244.565
244.539
244.514
244.488
244.469
244.453
244.435
244.418
244.394
244.353
244.294
244.215
244.127
244.046
243.943
243.849
243.756
243.66
243.581
243.494
243.413
243.331
243.241
243.185
243.177
243.187
243.203
243.223
243.237
243.236
243.191
243.09
242.904
242.635
242.343
242.123
242.06
242.126
243.468
245.552
255.568
256.573
257.771
257.679
259.173
260.254
260.224
262.419
262.144
264.765
264.333
267.107
266.527
269.512
268.793
271.923
271.262
274.311
274.006
276.67
276.383
279.083
278.547
281.664
280.766
284.306
283.23
286.901
285.934
289.402
288.644
291.903
291.329
294.42
293.866
297.011
296.409
299.592
298.993
302.001
301.774
304.217
305.093
306.464
307.747
309.047
310.364
311.649
312.948
314.216
315.5
316.753
318.027
319.271
320.536
321.771
323.028
324.251
325.497
326.707
327.941
329.136
330.356
331.533
332.736
333.893
335.077
336.211
337.372
338.481
339.617
340.698
341.807
342.858
343.939
344.958
346.01
346.997
348.02
348.975
349.968
350.892
351.857
352.751
353.688
354.553
355.463
356.3
357.185
357.996
358.856
359.642
360.477
361.239
362.048
362.787
363.57
364.286
365.042
365.733
366.456
449.965
449.735
449.301
448.55
447.968
447.517
447.138
446.772
446.413
446.074
445.807
445.638
445.556
445.566
445.657
445.796
445.955
446.116
446.299
446.493
446.707
446.938
447.179
447.416
447.669
447.962
448.306
448.751
449.344
450.034
450.708
451.278
451.696
451.923
451.948
451.78
451.074
449.279
446.751
444.028
441.178
438.299
435.487
432.823
430.376
428.191
426.285
424.639
423.217
421.971
420.869
419.885
419.005
418.22
417.524
416.911
416.367
415.874
415.421
414.986
414.544
414.056
413.503
412.897
412.259
411.608
410.954
410.3
409.645
408.997
408.356
407.718
407.083
406.451
405.819
405.179
404.524
403.854
403.175
402.487
401.785
401.068
400.336
399.587
398.826
398.053
397.267
396.468
395.645
394.8
393.934
393.046
392.138
391.215
390.279
389.32
388.333
387.314
386.261
385.156
383.954
382.562
380.801
378.374
374.812
369.555
362.175
352.711
341.871
330.825
320.646
311.841
304.355
297.909
292.277
287.361
283.295
280.777
279.677
279.162
278.897
278.792
278.758
278.749
278.747
278.746
278.746
278.746
278.746
278.746
278.746
278.746
278.746
278.746
278.746
278.746
278.746
278.746
278.746
278.746
278.746
278.746
278.746
278.746
278.746
278.746
278.746
278.746
278.746
278.746
369.048
372.439
375.165
377.337
379.053
380.412
381.499
382.378
383.093
383.676
384.148
384.529
384.836
385.085
385.297
385.486
385.666
385.844
386.023
386.205
386.39
386.577
386.76
386.935
387.101
387.257
387.401
387.528
387.641
387.743
387.837
387.926
388.013
388.092
388.155
388.208
388.261
388.324
388.394
388.475
388.559
388.631
388.714
388.803
388.883
388.918
388.922
388.911
388.888
388.854
388.807
388.724
388.542
388.191
387.763
387.369
387.037
386.787
386.626
386.566
386.595
386.785
387.087
387.433
387.775
388.09
388.36
388.58
388.748
388.876
388.988
389.1
389.213
389.329
389.455
389.599
389.765
389.953
390.154
390.364
390.573
390.776
390.973
391.163
391.35
391.541
391.74
391.944
392.154
392.366
392.575
392.775
392.962
393.14
393.326
393.524
393.735
393.961
394.195
394.434
394.672
394.902
395.121
395.333
395.552
395.785
396.044
396.356
396.705
397.026
397.327
397.649
397.982
398.225
398.258
397.865
396.586
393.746
386.412
363.19
317.332
291.152
281.603
279.317
278.856
278.767
278.75
278.747
278.746
278.746
278.746
278.746
278.746
278.746
278.746
278.746
278.746
278.746
278.746
278.746
278.746
278.746
278.746
278.746
278.746
278.746
278.746
278.746
278.746
278.746
)
;

boundaryField
{
    inlet
    {
        type            zeroGradient;
    }
    outlet
    {
        type            zeroGradient;
    }
    bottom
    {
        type            symmetryPlane;
    }
    top
    {
        type            symmetryPlane;
    }
    obstacle
    {
        type            zeroGradient;
    }
    defaultFaces
    {
        type            empty;
    }
}


// ************************************************************************* //
