/*--------------------------------*- C++ -*----------------------------------*\
| =========                 |                                                 |
| \\      /  F ield         | OpenFOAM: The Open Source CFD Toolbox           |
|  \\    /   O peration     | Version:  5.x                                   |
|   \\  /    A nd           | Web:      www.OpenFOAM.org                      |
|    \\/     M anipulation  |                                                 |
\*---------------------------------------------------------------------------*/
/*   Windows 32 and 64 bit porting by blueCAPE: http://www.bluecape.com.pt   *\
|  Based on Windows porting (2.0.x v4) by Symscape: http://www.symscape.com   |
\*---------------------------------------------------------------------------*/
FoamFile
{
    version     2.0;
    format      ascii;
    class       volVectorField;
    location    "0.008";
    object      U;
}
// * * * * * * * * * * * * * * * * * * * * * * * * * * * * * * * * * * * * * //

dimensions      [0 1 -1 0 0 0 0];

internalField   nonuniform List<vector> 
1000
(
(3.26333e-012 4.94302e-012 0)
(2.65863e-012 4.84383e-012 0)
(2.96983e-012 4.6773e-012 0)
(2.36072e-012 4.52298e-012 -2.97086e-018)
(2.23719e-012 4.63471e-012 2.97764e-018)
(1.6724e-012 4.27805e-012 0)
(1.68442e-012 4.40053e-012 0)
(1.14642e-012 4.18454e-012 5.99635e-018)
(1.81019e-012 4.28065e-012 -6.01017e-018)
(8.68384e-013 4.13767e-012 6.02405e-018)
(1.52301e-012 4.05785e-012 -6.03799e-018)
(8.86106e-013 4.17007e-012 0)
(1.08834e-012 3.81365e-012 0)
(9.72896e-013 3.98448e-012 0)
(1.10175e-012 3.83402e-012 0)
(1.24847e-012 3.69107e-012 -1.22174e-017)
(1.36648e-012 3.6987e-012 1.22461e-017)
(1.76669e-012 3.74705e-012 0)
(7.67398e-013 3.66816e-012 0)
(1.06353e-012 3.57285e-012 0)
(1.01995e-012 3.43562e-012 -4.82896e-020)
(1.24804e-012 3.57813e-012 1.23915e-017)
(8.73968e-013 3.23734e-012 -2.4842e-017)
(1.68224e-012 3.40304e-012 1.24507e-017)
(1.79288e-012 3.22561e-012 1.24804e-017)
(3.32865e-012 3.30261e-012 -1.25104e-017)
(5.38222e-012 3.2682e-012 2.50809e-017)
(1.22188e-011 3.24972e-012 -9.18295e-031)
(2.59078e-011 3.76284e-012 -2.52021e-017)
(5.94256e-011 3.93327e-012 2.52631e-017)
(1.33262e-010 5.79978e-012 -2.53244e-017)
(3.02997e-010 9.4144e-012 2.5386e-017)
(6.80088e-010 1.83546e-011 -2.54479e-017)
(1.51861e-009 3.90856e-011 0)
(3.35641e-009 8.6629e-011 -2.55727e-017)
(7.35358e-009 1.94813e-010 2.56355e-017)
(1.59543e-008 4.36829e-010 0)
(3.42797e-008 9.74051e-010 0)
(7.2921e-008 2.15004e-009 0)
(1.53557e-007 4.69498e-009 -2.589e-017)
(3.2004e-007 1.01367e-008 2.59544e-017)
(6.60055e-007 2.1631e-008 5.08185e-020)
(1.34683e-006 4.56133e-008 5.09456e-020)
(2.71842e-006 9.50311e-008 0)
(5.42626e-006 1.9558e-007 0)
(1.07095e-005 3.97554e-007 5.13305e-020)
(2.08943e-005 7.97983e-007 -5.14602e-020)
(4.02874e-005 1.58137e-006 5.15904e-020)
(7.67511e-005 3.09325e-006 5.17214e-020)
(0.000144431 5.97087e-006 -2.66006e-017)
(0.000268395 1.13707e-005 2.66684e-017)
(0.000492381 2.13571e-005 5.21182e-020)
(0.000891463 3.95522e-005 -5.22518e-020)
(0.00159235 7.21988e-005 5.23862e-020)
(0.00280515 0.000129857 5.25212e-020)
(0.00487185 0.000230045 -5.26569e-020)
(0.00833837 0.000401227 -2.69767e-017)
(0.0140584 0.000688658 2.7153e-017)
(0.0233382 0.00116264 -5.3068e-020)
(0.0381304 0.00192971 5.32064e-020)
(0.0612823 0.00314706 5.33454e-020)
(0.0968356 0.00504002 -5.3485e-020)
(0.150364 0.00792161 5.49466e-017)
(0.229316 0.0122119 -1.10021e-016)
(0.343304 0.0184533 5.51328e-017)
(0.504274 0.027317 -5.52307e-017)
(0.726452 0.0395945 1.10918e-016)
(1.026 0.0561682 -5.56433e-017)
(1.4203 0.0779607 5.44643e-020)
(1.92692 0.105864 5.46004e-020)
(2.5623 0.140657 -5.58476e-017)
(3.34034 0.182926 5.60952e-017)
(4.27119 0.232973 5.49872e-020)
(5.36036 0.290803 -5.51054e-020)
(6.6083 0.356207 5.52159e-020)
(8.01045 0.428766 5.53172e-020)
(9.55787 0.507935 -5.54081e-020)
(11.2386 0.593162 5.54875e-020)
(13.0391 0.683983 -5.59455e-017)
(14.9459 0.780068 5.63454e-017)
(16.9456 0.881214 5.56555e-020)
(19.0264 0.987308 -5.58776e-017)
(21.1773 1.09831 5.63115e-017)
(23.389 1.21424 0)
(25.6533 1.3351 0)
(27.9633 1.46093 5.58383e-017)
(30.3131 1.59174 -5.62454e-017)
(32.6977 1.72755 0)
(35.1129 1.86833 0)
(37.5552 2.01409 0)
(40.0215 2.16481 5.56832e-020)
(42.5092 2.32045 -5.5432e-017)
(45.0162 2.48099 5.59755e-017)
(47.5405 2.64641 5.53787e-017)
(50.0806 2.81667 -5.58726e-017)
(52.635 2.99176 0)
(55.2024 3.17165 5.52643e-017)
(57.7819 3.35632 -5.5655e-017)
(60.3725 3.54574 -5.50921e-017)
(62.9733 3.73991 1.10631e-016)
(65.5837 3.93882 -5.55415e-017)
(68.2029 4.14244 0)
(70.8303 4.35078 5.53535e-020)
(73.4655 4.56382 5.53209e-020)
(76.1079 4.78156 5.473e-017)
(78.7572 5.00399 -5.8061e-019)
(81.4129 5.23111 -5.5189e-017)
(84.0747 5.4629 -5.45437e-017)
(86.7423 5.69937 5.51235e-017)
(89.4153 5.9405 5.51181e-020)
(92.0935 6.18629 0)
(94.7767 6.43673 0)
(97.4645 6.69181 0)
(100.157 6.95151 0)
(102.853 7.21583 0)
(105.554 7.48474 5.49089e-020)
(108.259 7.75824 -5.3915e-017)
(110.967 8.03629 5.45115e-017)
(113.679 8.31888 5.38947e-017)
(116.394 8.60598 -6.10641e-019)
(119.112 8.89756 -5.43219e-017)
(121.834 9.1936 5.46997e-020)
(124.558 9.49407 5.46653e-020)
(127.285 9.79893 0)
(130.015 10.1081 5.34459e-017)
(132.747 10.4217 -1.07382e-016)
(135.482 10.7395 5.3884e-017)
(138.218 11.0615 5.33013e-017)
(140.957 11.3878 -5.37551e-017)
(143.698 11.7181 0)
(146.44 12.0526 5.30467e-017)
(149.184 12.3911 -5.36155e-017)
(151.93 12.7336 -5.29127e-017)
(154.677 13.08 5.35399e-017)
(157.425 13.4304 0)
(160.174 13.7845 0)
(162.925 14.1424 0)
(165.676 14.5041 0)
(168.427 14.8693 5.25069e-017)
(171.18 15.2382 -5.30437e-017)
(173.932 15.6106 0)
(176.686 15.9864 -5.23159e-017)
(179.438 16.3657 5.29379e-017)
(182.192 16.7481 0)
(184.944 17.134 0)
(187.698 17.5228 -5.19957e-017)
(190.449 17.9148 1.0459e-016)
(193.2 18.3097 -5.2568e-017)
(195.951 18.7075 0)
(198.699 19.1081 0)
(201.447 19.5113 0)
(204.193 19.9172 0)
(206.937 20.3257 1.03116e-016)
(209.68 20.7365 -1.41972e-018)
(212.42 21.1497 -1.04244e-016)
(215.158 21.5652 0)
(217.894 21.9829 0)
(220.627 22.4024 0)
(223.357 22.8241 0)
(226.085 23.2477 -1.02201e-016)
(228.809 23.6728 1.0352e-016)
(231.53 24.0998 -5.3622e-020)
(234.248 24.5282 0)
(236.962 24.9581 1.01669e-016)
(239.673 25.3892 -2.0453e-016)
(242.379 25.8214 1.02838e-016)
(245.08 26.2548 5.35544e-020)
(247.778 26.689 0)
(250.471 27.1239 -5.3542e-020)
(253.159 27.5593 -1.00868e-016)
(255.842 27.9952 1.02175e-016)
(258.52 28.4315 0)
(261.192 28.8675 5.35315e-020)
(263.857 29.3034 -5.35163e-020)
(266.517 29.7391 -5.35213e-020)
(269.171 30.1741 1.00196e-016)
(271.818 30.6083 -1.50464e-018)
(274.457 31.0411 -1.01486e-016)
(277.089 31.4728 5.35273e-020)
(279.713 31.9028 0)
(282.329 32.3306 9.95716e-017)
(284.936 32.756 -1.41043e-018)
(287.534 33.1784 -1.00944e-016)
(290.122 33.598 9.92975e-017)
(292.7 34.0136 -1.00635e-016)
(295.266 34.4251 -5.3632e-020)
(297.822 34.8317 -5.36658e-020)
(300.365 35.233 0)
(302.895 35.6284 -5.37183e-020)
(305.411 36.0169 -5.37609e-020)
(307.912 36.398 9.8699e-017)
(310.398 36.7706 -1.00059e-016)
(312.866 37.1339 -9.85472e-017)
(315.317 37.4869 1.51939e-018)
(317.748 37.8283 9.97684e-017)
(320.159 38.1572 0)
(322.546 38.4719 5.4133e-020)
(324.91 38.7714 -5.41993e-020)
(327.248 39.0536 -5.42923e-020)
(329.558 39.3174 0)
(331.837 39.5606 -5.44747e-020)
(334.084 39.7815 -5.45724e-020)
(336.295 39.9781 -9.80026e-017)
(338.468 40.1478 9.94439e-017)
(340.599 40.2888 -5.49349e-020)
(342.684 40.3982 5.50794e-020)
(344.721 40.4738 -5.52174e-020)
(346.703 40.5124 0)
(348.627 40.5113 5.55392e-020)
(350.486 40.4671 9.82731e-017)
(352.274 40.3765 -9.96925e-017)
(353.983 40.2359 -9.85478e-017)
(355.607 40.0412 9.97696e-017)
(357.135 39.7882 -5.6498e-020)
(358.558 39.4718 5.67182e-020)
(359.862 39.087 0)
(361.036 38.6277 -5.7176e-020)
(362.064 38.088 5.74108e-020)
(362.932 37.4612 -5.76623e-020)
(363.624 36.7406 0)
(364.123 35.9198 5.81775e-020)
(364.415 34.9925 -1.01575e-016)
(364.486 33.9538 1.02342e-016)
(364.333 32.8031 5.90125e-020)
(363.984 31.5562 -5.93028e-020)
(363.46 30.2251 -5.96017e-020)
(362.763 28.811 5.99048e-020)
(361.897 27.3175 -1.05417e-016)
(360.848 25.7388 2.12015e-016)
(359.59 24.0625 -1.06526e-016)
(358.084 22.2697 0)
(356.275 20.3328 -6.15313e-020)
(354.072 18.2056 6.18947e-020)
(351.325 15.8098 -6.22792e-020)
(347.895 13.0743 0)
(343.731 9.97553 -1.14823e-016)
(338.865 6.53671 1.13817e-016)
(333.441 2.84265 1.18769e-016)
(327.714 -0.957677 -1.17288e-016)
(322.061 -4.64708 1.22708e-016)
(316.855 -8.01536 3.27224e-018)
(312.314 -10.9466 -1.2305e-016)
(308.555 -13.3976 0)
(305.589 -15.3528 -6.68732e-020)
(303.303 -16.8795 6.72911e-020)
(301.561 -18.0596 -1.30988e-016)
(300.236 -18.969 2.62778e-016)
(299.22 -19.6728 -1.31941e-016)
(298.429 -20.221 -6.88688e-020)
(297.802 -20.6505 -1.3481e-016)
(297.294 -20.9884 1.3509e-016)
(296.875 -21.2534 -7.00121e-020)
(296.523 -21.458 -7.03939e-020)
(296.226 -21.61 7.07752e-020)
(295.975 -21.7143 0)
(295.764 -21.7746 -1.40067e-016)
(295.585 -21.7946 -1.96195e-019)
(295.431 -21.7796 1.4138e-016)
(295.291 -21.7359 1.42536e-016)
(295.153 -21.6715 -1.43118e-016)
(295.003 -21.5952 -1.44312e-016)
(294.828 -21.5172 1.44853e-016)
(294.603 -21.4533 0)
(294.282 -21.4379 1.46928e-016)
(293.741 -21.5599 -1.47706e-016)
(292.679 -22.038 1.49786e-016)
(290.524 -23.2942 -1.49769e-016)
(286.181 -26.1463 1.55831e-016)
(277.471 -32.2351 9.46693e-018)
(260.367 -44.5855 -1.56736e-016)
(234.649 -63.4026 0)
(213.994 -78.3 8.6492e-020)
(209.049 -81.1874 -8.73919e-020)
(212.636 -77.5168 1.82913e-016)
(217.728 -72.6094 -3.71049e-018)
(223.725 -66.9384 -1.85593e-016)
(228.491 -62.2031 -8.75165e-020)
(230.929 -59.2847 1.83003e-016)
(231.704 -57.6757 -1.84433e-016)
(231.812 -56.5888 -1.85396e-016)
(231.77 -55.6197 1.86328e-016)
(231.68 -54.7045 -8.95989e-020)
(231.745 -53.696 0)
(231.987 -52.6081 1.89671e-016)
(232.369 -51.505 -3.81466e-016)
(233.007 -50.3238 1.91702e-016)
(233.878 -49.1179 -1.92053e-016)
(234.837 -48.0427 1.9336e-016)
(235.902 -47.0939 -1.94076e-016)
(237.112 -46.2325 1.9619e-016)
(238.506 -45.3944 0)
(239.544 -45.0332 2.08024e-016)
(240.352 -44.958 -2.2298e-016)
(241.582 -44.4876 -1.14066e-019)
(242.884 -43.8308 0)
(244.025 -43.074 -2.69431e-016)
(244.935 -42.1371 5.688e-016)
(245.525 -40.941 -2.97175e-016)
(245.787 -39.3965 1.46536e-019)
(245.4 -37.7055 -1.51566e-019)
(-5.35168e-012 4.98463e-012 0)
(-5.41203e-012 4.86489e-012 0)
(-4.3797e-012 4.70938e-012 0)
(-5.2775e-012 4.56194e-012 0)
(-4.7713e-012 4.67245e-012 0)
(-2.8379e-012 4.30299e-012 0)
(-5.58212e-012 4.43538e-012 0)
(-1.94112e-012 4.25367e-012 0)
(-6.63218e-012 4.31685e-012 0)
(-1.3781e-012 4.16022e-012 0)
(-6.7576e-012 4.10385e-012 0)
(-1.67886e-012 4.22197e-012 0)
(-5.53819e-012 3.85842e-012 0)
(-2.93624e-012 4.03317e-012 0)
(-3.89881e-012 3.88045e-012 0)
(-2.82448e-012 3.7571e-012 0)
(-4.24301e-012 3.73005e-012 0)
(-3.64291e-012 3.76353e-012 0)
(-3.29415e-012 3.71239e-012 0)
(-3.07807e-012 3.60461e-012 0)
(-3.3326e-012 3.49197e-012 2.73601e-020)
(-4.08876e-012 3.62505e-012 0)
(-2.82702e-012 3.27313e-012 0)
(-4.79456e-012 3.42517e-012 0)
(-2.32872e-012 3.21938e-012 0)
(-5.43134e-012 3.27404e-012 0)
(-2.82645e-012 3.14477e-012 0)
(-7.22472e-012 2.90913e-012 0)
(-8.3366e-012 2.92124e-012 0)
(-1.70932e-011 1.88416e-012 0)
(-3.62075e-011 9.54431e-013 0)
(-7.49453e-011 -2.08802e-012 0)
(-1.66648e-010 -8.39971e-012 0)
(-3.5847e-010 -2.26841e-011 0)
(-7.8182e-010 -5.43459e-011 0)
(-1.67825e-009 -1.2376e-010 0)
(-3.58593e-009 -2.75392e-010 0)
(-7.57415e-009 -6.01739e-010 0)
(-1.58539e-008 -1.29897e-009 0)
(-3.28323e-008 -2.77319e-009 0)
(-6.73005e-008 -5.85804e-009 0)
(-1.36465e-007 -1.22475e-008 -2.66341e-020)
(-2.73712e-007 -2.53415e-008 -2.66005e-020)
(-5.42852e-007 -5.18878e-008 0)
(-1.06438e-006 -1.05119e-007 0)
(-2.06255e-006 -2.10665e-007 -2.65002e-020)
(-3.94901e-006 -4.17565e-007 2.64669e-020)
(-7.46806e-006 -8.18429e-007 -2.64338e-020)
(-1.3945e-005 -1.58588e-006 -2.64006e-020)
(-2.57016e-005 -3.03733e-006 2.63676e-020)
(-4.67372e-005 -5.74831e-006 -2.63347e-020)
(-8.38181e-005 -1.07475e-005 -2.63018e-020)
(-0.000148177 -1.98463e-005 2.6269e-020)
(-0.000258085 -3.61853e-005 -2.62363e-020)
(-0.000442617 -6.5124e-005 -2.62036e-020)
(-0.000746952 -0.000115656 2.61709e-020)
(-0.00123945 -0.000202618 -2.61382e-020)
(-0.00202052 -0.000350037 -2.61054e-020)
(-0.00323264 -0.000596102 2.60725e-020)
(-0.00506982 -0.00100031 -2.60392e-020)
(-0.00778287 -0.00165339 -2.60055e-020)
(-0.0116742 -0.00269069 2.59709e-020)
(-0.0170712 -0.00430931 -2.59352e-020)
(-0.0242641 -0.00678909 -2.58978e-020)
(-0.033386 -0.0105166 2.58582e-020)
(-0.0442115 -0.0160105 -2.58154e-020)
(-0.0558468 -0.0239442 -2.57687e-020)
(-0.0662861 -0.035163 2.5717e-020)
(-0.071818 -0.0506869 -2.56594e-020)
(-0.0663215 -0.0716959 -2.5595e-020)
(-0.0408198 -0.0994899 2.55233e-020)
(0.015549 -0.135434 -2.54431e-020)
(0.116183 -0.180911 -2.53538e-020)
(0.280829 -0.237206 2.52558e-020)
(0.532372 -0.305357 -2.515e-020)
(0.892849 -0.38611 -2.50374e-020)
(1.3832 -0.479861 2.49191e-020)
(2.01987 -0.586633 -2.47965e-020)
(2.8129 -0.706129 -2.46708e-020)
(3.7653 -0.837803 2.45432e-020)
(4.87275 -0.980948 -2.44142e-020)
(6.12606 -1.1348 -2.42845e-020)
(7.51286 -1.29856 2.41545e-020)
(9.0191 -1.47151 0)
(10.6303 -1.65296 0)
(12.332 -1.84233 -2.37644e-020)
(14.1111 -2.03911 0)
(15.9562 -2.24289 0)
(17.8578 -2.45331 0)
(19.8076 -2.67008 0)
(21.7983 -2.89297 -2.31163e-020)
(23.8244 -3.12178 -2.29871e-020)
(25.8811 -3.35636 0)
(27.9646 -3.59655 0)
(30.0718 -3.84224 0)
(32.1998 -4.09334 0)
(34.3466 -4.34976 -2.23427e-020)
(36.5103 -4.61141 -2.22143e-020)
(38.6896 -4.87822 0)
(40.8829 -5.15013 0)
(43.0893 -5.42708 0)
(45.3078 -5.709 0)
(47.5376 -5.99583 -2.1575e-020)
(49.7779 -6.28753 -2.14478e-020)
(52.0279 -6.58404 0)
(54.2872 -6.88531 0)
(56.555 -7.19128 0)
(58.8311 -7.50192 0)
(61.1147 -7.81717 -2.08148e-020)
(63.4056 -8.13698 -2.06888e-020)
(65.7033 -8.46131 0)
(68.0074 -8.79012 0)
(70.3175 -9.12336 0)
(72.6332 -9.46099 0)
(74.9542 -9.80296 0)
(77.2801 -10.1492 -1.99376e-020)
(79.6107 -10.4998 -1.98132e-020)
(81.9455 -10.8546 0)
(84.2845 -11.2135 -1.95648e-020)
(86.6273 -11.5766 0)
(88.9735 -11.9439 0)
(91.3231 -12.3152 -1.91936e-020)
(93.6757 -12.6905 -1.90703e-020)
(96.0311 -13.0698 0)
(98.3892 -13.4532 0)
(100.75 -13.8404 0)
(103.112 -14.2315 1.85787e-020)
(105.477 -14.6265 -1.84562e-020)
(107.844 -15.0253 -1.83338e-020)
(110.212 -15.4279 0)
(112.582 -15.8342 0)
(114.953 -16.2442 0)
(117.326 -16.6579 0)
(119.7 -17.0752 -1.77247e-020)
(122.075 -17.4961 0)
(124.45 -17.9205 0)
(126.827 -18.3485 0)
(129.204 -18.7798 0)
(131.582 -19.2146 0)
(133.961 -19.6528 -1.6999e-020)
(136.339 -20.0942 0)
(138.718 -20.5389 0)
(141.098 -20.9869 -1.66381e-020)
(143.477 -21.4379 0)
(145.856 -21.8922 0)
(148.236 -22.3494 -1.62793e-020)
(150.615 -22.8097 0)
(152.994 -23.273 0)
(155.372 -23.7391 0)
(157.75 -24.2082 0)
(160.127 -24.6799 0)
(162.505 -25.1547 0)
(164.879 -25.6317 0)
(167.255 -26.112 1.53364e-020)
(169.627 -26.594 0)
(172 -27.0794 0)
(174.371 -27.5666 0)
(176.74 -28.0564 0)
(179.108 -28.5489 0)
(181.473 -29.0431 0)
(183.836 -29.5399 -1.45118e-020)
(186.198 -30.0389 1.43977e-020)
(188.555 -30.5397 0)
(190.91 -31.0428 0)
(193.262 -31.548 0)
(195.609 -32.0549 0)
(197.953 -32.5639 -1.38203e-020)
(200.292 -33.0749 0)
(202.626 -33.5875 1.3592e-020)
(204.955 -34.1019 -1.3478e-020)
(207.278 -34.6183 1.33675e-020)
(209.594 -35.1362 0)
(211.903 -35.6558 -1.31394e-020)
(214.205 -36.1772 1.30284e-020)
(216.498 -36.7004 1.29179e-020)
(218.781 -37.2251 0)
(221.054 -37.7514 1.26929e-020)
(223.316 -38.2796 1.2583e-020)
(225.566 -38.8094 -1.24736e-020)
(227.802 -39.3409 0)
(230.023 -39.8741 1.22515e-020)
(232.229 -40.4093 -1.21429e-020)
(234.416 -40.9463 1.20344e-020)
(236.584 -41.4853 0)
(238.73 -42.0262 -1.18156e-020)
(240.853 -42.5693 1.17077e-020)
(242.95 -43.1149 1.16008e-020)
(245.02 -43.6628 0)
(247.058 -44.2132 1.13855e-020)
(249.063 -44.7665 1.12782e-020)
(251.032 -45.3229 -1.11723e-020)
(252.961 -45.8826 0)
(254.847 -46.4458 1.09607e-020)
(256.686 -47.0128 -1.08547e-020)
(258.475 -47.584 1.07494e-020)
(260.209 -48.1599 0)
(261.886 -48.7407 -1.05414e-020)
(263.501 -49.3269 1.04374e-020)
(265.05 -49.9188 1.03335e-020)
(266.53 -50.517 0)
(267.939 -51.1221 1.01284e-020)
(269.272 -51.7345 1.00271e-020)
(270.529 -52.3546 -9.92623e-021)
(271.707 -52.983 0)
(272.806 -53.62 9.726e-021)
(273.827 -54.2664 -9.62805e-021)
(274.77 -54.9225 9.53159e-021)
(275.639 -55.5886 0)
(276.435 -56.2647 -9.34217e-021)
(277.164 -56.9514 9.24988e-021)
(277.83 -57.6486 9.16013e-021)
(278.438 -58.3564 0)
(278.994 -59.0747 8.98866e-021)
(279.504 -59.803 8.90721e-021)
(279.974 -60.541 -8.82885e-021)
(280.409 -61.288 0)
(280.813 -62.0434 8.68443e-021)
(281.191 -62.8065 -8.61949e-021)
(281.547 -63.576 8.55999e-021)
(281.883 -64.3506 0)
(282.202 -65.129 -8.4572e-021)
(282.505 -65.9097 8.41544e-021)
(282.793 -66.6911 0)
(283.067 -67.4715 -8.3545e-021)
(283.326 -68.2491 8.33514e-021)
(283.568 -69.0224 8.3203e-021)
(283.796 -69.7882 -8.31132e-021)
(284.012 -70.5451 0)
(284.22 -71.2921 8.30996e-021)
(284.418 -72.0276 -8.31861e-021)
(284.606 -72.7498 0)
(284.777 -73.4564 8.36083e-021)
(284.932 -74.145 -8.39848e-021)
(285.073 -74.8127 8.45286e-021)
(285.211 -75.4593 0)
(285.379 -76.0791 -8.63965e-021)
(285.633 -76.6657 8.77718e-021)
(286.078 -77.2121 8.94422e-021)
(286.754 -77.7118 0)
(287.553 -78.1614 9.34604e-021)
(288.346 -78.5589 9.55169e-021)
(289.06 -78.9083 -9.74195e-021)
(289.669 -79.2129 0)
(290.174 -79.4816 1.00472e-020)
(290.596 -79.7217 -1.01573e-020)
(290.951 -79.9395 1.02443e-020)
(291.254 -80.1395 0)
(291.517 -80.3254 -1.03671e-020)
(291.744 -80.4998 1.04108e-020)
(291.942 -80.6645 1.04467e-020)
(292.113 -80.8209 0)
(292.26 -80.9699 1.05022e-020)
(292.387 -81.1122 1.05235e-020)
(292.497 -81.2483 -1.05412e-020)
(292.592 -81.3787 0)
(292.675 -81.5039 1.05676e-020)
(292.747 -81.6242 -1.05767e-020)
(292.81 -81.74 1.05837e-020)
(292.865 -81.8514 0)
(292.913 -81.9585 -1.05924e-020)
(292.956 -82.0612 1.05952e-020)
(292.994 -82.1593 1.05976e-020)
(293.028 -82.2523 0)
(293.058 -82.3397 1.06058e-020)
(293.088 -82.4201 1.06183e-020)
(293.121 -82.4905 -1.06501e-020)
(293.166 -82.544 0)
(293.237 -82.5667 1.08996e-020)
(293.355 -82.5308 -1.12634e-020)
(293.54 -82.3806 1.20142e-020)
(293.816 -82.0086 0)
(294.171 -81.3504 -1.51311e-020)
(294.556 -80.5716 1.56509e-020)
(294.944 -79.8089 1.55783e-020)
(295.337 -79.0742 0)
(295.737 -78.383 1.50641e-020)
(296.148 -77.7383 1.48111e-020)
(296.566 -77.1181 -1.46582e-020)
(296.985 -76.5028 0)
(297.393 -75.8842 1.46446e-020)
(297.78 -75.2636 -1.46678e-020)
(298.139 -74.6429 1.46914e-020)
(298.469 -74.026 0)
(298.778 -73.4199 -1.47223e-020)
(299.076 -72.8306 1.47261e-020)
(299.379 -72.266 1.47171e-020)
(299.702 -71.7359 0)
(300.064 -71.2495 1.46709e-020)
(300.497 -70.8162 1.46496e-020)
(301.024 -70.4476 -1.46304e-020)
(301.653 -70.1558 0)
(302.389 -69.9582 1.45995e-020)
(303.236 -69.8562 -1.45991e-020)
(304.238 -69.8638 1.46013e-020)
(305.244 -69.9897 0)
(306.235 -70.2409 -1.46133e-020)
(307.737 -70.615 1.46357e-020)
(309.197 -71.0841 0)
(310.74 -71.6674 -1.49416e-020)
(313.718 -72.3065 1.56414e-020)
(314.171 -72.442 0)
(314.759 -72.5781 0)
(315.238 -72.7157 0)
(315.68 -72.854 0)
(315.89 -72.9936 0)
(315.899 -73.1352 0)
(316.098 -73.2774 0)
(316.218 -73.4218 0)
(316.347 -73.5667 0)
(316.448 -73.7142 0)
(316.532 -73.862 0)
(316.576 -74.0125 0)
(316.626 -74.1634 0)
(316.642 -74.3171 0)
(316.668 -74.4711 0)
(316.693 -74.6277 0)
(316.701 -74.7848 0)
(316.777 -74.9445 0)
(316.773 -75.1044 0)
(316.821 -75.2672 0)
(316.844 -75.4299 0)
(316.838 -75.5955 0)
(316.865 -75.761 0)
(316.846 -75.9294 0)
(316.884 -76.0977 0)
(316.878 -76.2688 0)
(316.907 -76.4398 0)
(316.931 -76.6134 0)
(316.942 -76.787 0)
(316.976 -76.963 0)
(316.998 -77.1391 0)
(317.03 -77.3176 0)
(317.036 -77.4959 0)
(317.049 -77.6768 0)
(317.068 -77.8574 0)
(317.079 -78.0406 0)
(317.099 -78.2233 0)
(317.101 -78.4085 0)
(317.064 -78.5932 0)
(317.034 -78.7802 0)
(317.017 -78.9671 0)
(316.99 -79.1555 0)
(316.88 -79.3445 0)
(316.81 -79.5343 0)
(316.696 -79.7249 0)
(316.6 -79.9162 0)
(316.508 -80.1082 0)
(316.422 -80.3008 0)
(316.336 -80.494 0)
(316.248 -80.6877 0)
(316.156 -80.8819 0)
(316.058 -81.0765 0)
(315.954 -81.2715 0)
(315.843 -81.4669 0)
(315.724 -81.6625 0)
(315.596 -81.8584 0)
(315.46 -82.0544 0)
(315.315 -82.2506 0)
(315.161 -82.4469 0)
(314.999 -82.6432 0)
(314.827 -82.8395 0)
(314.646 -83.0357 0)
(314.456 -83.2318 0)
(314.258 -83.4277 0)
(314.051 -83.6233 0)
(313.835 -83.8186 0)
(313.61 -84.0136 0)
(313.378 -84.208 0)
(313.138 -84.402 0)
(312.891 -84.5954 0)
(312.637 -84.7882 0)
(312.376 -84.9802 0)
(312.11 -85.1715 0)
(311.838 -85.3619 0)
(311.561 -85.5515 0)
(311.28 -85.74 0)
(310.995 -85.9274 0)
(310.706 -86.1138 0)
(310.415 -86.2989 0)
(310.121 -86.4827 0)
(309.825 -86.6653 0)
(309.527 -86.8464 0)
(309.228 -87.026 0)
(308.927 -87.204 0)
(308.626 -87.3805 0)
(308.323 -87.5553 0)
(308.021 -87.7283 0)
(307.717 -87.8995 0)
(307.414 -88.0688 0)
(307.11 -88.2362 0)
(306.806 -88.4016 0)
(306.502 -88.5649 0)
(306.198 -88.726 0)
(305.894 -88.885 0)
(305.591 -89.0418 0)
(305.289 -89.1962 0)
(304.987 -89.3483 0)
(304.686 -89.498 0)
(304.385 -89.6451 0)
(304.106 -89.7898 0)
(274.442 -64.0001 2.43748e-019)
(275.33 -63.0118 -4.47833e-016)
(276.727 -61.5019 8.84956e-016)
(277.747 -60.3482 -1.00902e-018)
(278.253 -59.6719 -4.3074e-016)
(278.647 -59.1014 2.03806e-019)
(279.101 -58.4828 -4.18807e-016)
(279.585 -57.8475 4.14666e-016)
(280.045 -57.2368 1.96434e-019)
(280.469 -56.6522 -4.03517e-016)
(280.861 -56.0786 7.98487e-016)
(281.225 -55.5034 -7.89118e-016)
(281.558 -54.9203 3.90725e-016)
(281.859 -54.3263 1.85685e-019)
(282.129 -53.719 3.81497e-016)
(282.37 -53.0967 -5.56128e-019)
(282.585 -52.4575 -3.74472e-016)
(282.777 -51.7991 3.70172e-016)
(282.948 -51.1191 -3.66895e-016)
(283.099 -50.4139 0)
(283.227 -49.6794 1.73446e-019)
(283.331 -48.9106 -3.55758e-016)
(283.404 -48.101 3.53294e-016)
(283.442 -47.2435 1.68817e-019)
(283.436 -46.329 -3.46224e-016)
(283.378 -45.3467 3.43916e-016)
(283.259 -44.2847 -3.4004e-016)
(283.069 -43.1297 3.37907e-016)
(282.799 -41.8675 1.61959e-019)
(282.438 -40.4834 0)
(281.977 -38.9627 0)
(281.409 -37.2927 -3.27026e-016)
(280.728 -35.4636 3.24993e-016)
(279.928 -33.4699 3.22089e-016)
(278.993 -31.3194 -3.19576e-016)
(277.882 -29.0396 3.16505e-016)
(276.669 -26.6087 -3.13568e-016)
(275.44 -24.0182 0)
(274.105 -21.3552 3.05025e-016)
(272.644 -18.6752 -3.0109e-016)
(271.127 -15.9962 -2.9644e-016)
(269.586 -13.3606 2.92896e-016)
(268.045 -10.8137 -2.88125e-016)
(266.536 -8.39825 2.84886e-016)
(265.082 -6.15335 0)
(263.707 -4.11237 0)
(262.43 -2.30021 1.33352e-019)
(261.266 -0.732628 2.70792e-016)
(260.224 0.582396 -2.68268e-016)
(259.302 1.64491 -2.65276e-016)
(258.496 2.46335 5.25838e-016)
(257.799 3.05349 -2.60654e-016)
(257.202 3.43713 2.57915e-016)
(256.691 3.64026 -2.56011e-016)
(256.253 3.69061 2.53589e-016)
(255.875 3.61641 -2.51714e-016)
(255.544 3.44537 1.21905e-019)
(255.248 3.2031 0)
(254.977 2.91267 0)
(254.724 2.59394 -2.43495e-016)
(254.484 2.26482 2.41999e-016)
(254.257 1.93976 -2.39603e-016)
(254.037 1.62841 2.38229e-016)
(253.818 1.33661 0)
(253.594 1.06785 0)
(253.36 0.823829 0)
(253.115 0.604807 -2.30265e-016)
(252.856 0.409901 2.29022e-016)
(252.583 0.23739 2.2662e-016)
(252.293 0.0850054 -3.95633e-019)
(251.988 -0.0499338 -2.23602e-016)
(251.668 -0.17037 1.09201e-019)
(251.332 -0.279424 0)
(250.979 -0.380186 -2.17965e-016)
(250.61 -0.475495 2.16882e-016)
(250.223 -0.567852 1.07332e-016)
(249.819 -0.659451 -1.06821e-016)
(249.398 -0.752228 -1.05712e-016)
(248.957 -0.847855 1.05232e-016)
(248.496 -0.947697 0)
(248.014 -1.05282 -1.03339e-016)
(247.507 -1.16406 1.02909e-016)
(246.975 -1.28205 -1.01792e-016)
(246.415 -1.4073 1.01395e-016)
(245.825 -1.54025 0)
(245.202 -1.68116 0)
(244.543 -1.83017 0)
(243.845 -1.98726 0)
(243.104 -2.15222 0)
(242.318 -2.32458 -9.6583e-017)
(241.485 -2.50351 9.63271e-017)
(240.606 -2.6878 0)
(239.68 -2.87616 0)
(238.709 -3.06747 0)
(237.692 -3.26058 0)
(236.629 -3.4541 0)
(235.521 -3.64671 0)
(234.366 -3.83778 9.09649e-017)
(233.151 -4.0283 -6.07826e-019)
(231.842 -4.2225 -9.02322e-017)
(230.352 -4.43046 0)
(228.496 -4.67302 0)
(225.907 -4.98918 0)
(221.922 -5.44527 0)
(215.472 -6.13884 0)
(205.132 -7.1814 -8.27827e-017)
(189.531 -8.64006 6.09984e-018)
(168.244 -10.4416 7.50042e-018)
(142.682 -12.3079 8.51306e-017)
(115.993 -13.8297 0)
(91.4838 -14.6769 0)
(70.9147 -14.7532 0)
(54.2605 -14.1615 0)
(40.6628 -13.0684 0)
(29.2948 -11.6143 0)
(19.6439 -9.89501 0)
(11.7027 -7.96675 -6.81924e-017)
(6.24223 -5.86389 1.19637e-018)
(3.18258 -3.69666 5.93794e-019)
(1.43893 -1.76215 6.74737e-017)
(0.534209 -0.602784 0)
(0.16628 -0.159237 0)
(0.0451067 -0.0338267 0)
(0.0112582 -0.00644301 0)
(0.00268323 -0.00118905 -3.28102e-017)
(0.000620685 -0.000217661 3.26564e-017)
(0.000140544 -3.97332e-005 3.25036e-017)
(3.1315e-005 -7.24079e-006 -6.47049e-017)
(6.88995e-006 -1.31763e-006 3.22027e-017)
(1.50067e-006 -2.39462e-007 3.20543e-017)
(3.2416e-007 -4.34692e-008 -3.19072e-017)
(6.95408e-008 -7.88356e-009 0)
(1.48319e-008 -1.42891e-009 0)
(3.14663e-009 -2.59034e-010 0)
(6.63802e-010 -4.71501e-011 3.13323e-017)
(1.38132e-010 -8.75219e-012 -3.11918e-017)
(2.70112e-011 -1.64128e-012 1.55263e-017)
(3.91872e-012 -5.69716e-013 -1.54573e-017)
(-1.12703e-012 -1.55313e-013 0)
(-1.65849e-012 -3.01024e-013 0)
(-2.51104e-012 -1.97337e-013 0)
(-2.07319e-012 -1.33571e-013 1.51873e-017)
(-2.62423e-012 -3.54377e-013 -1.51213e-017)
(-2.03531e-012 -6.47273e-014 0)
(-2.37088e-012 -3.32459e-013 7.49545e-018)
(-2.2151e-012 -1.72168e-013 0)
(-2.44685e-012 -3.29228e-013 -7.43139e-018)
(-1.77075e-012 -2.41699e-013 0)
(-2.32456e-012 -1.55299e-013 0)
(-2.29581e-012 -2.28119e-013 0)
(302.875 -90.2021 -2.95478e-020)
(302.33 -90.5031 0)
(301.947 -90.6932 -2.99382e-020)
(301.567 -90.7721 -3.00458e-020)
(301.164 -90.7379 0)
(300.748 -90.5924 -3.0217e-020)
(300.338 -90.3404 0)
(299.946 -89.9877 -3.02998e-020)
(299.579 -89.5401 -3.03216e-020)
(299.237 -89.0039 0)
(298.917 -88.3855 -3.03481e-020)
(298.616 -87.6914 0)
(298.329 -86.9285 -3.03583e-020)
(298.051 -86.1034 -3.03591e-020)
(297.781 -85.2226 0)
(297.514 -84.2925 -3.03568e-020)
(297.248 -83.319 0)
(296.983 -82.3081 -3.03541e-020)
(296.719 -81.2651 -3.03537e-020)
(296.455 -80.1951 0)
(296.194 -79.1027 -3.03563e-020)
(295.938 -77.9922 -3.03597e-020)
(295.69 -76.8675 0)
(295.451 -75.7321 -3.03714e-020)
(295.225 -74.5892 0)
(295.013 -73.4418 -3.03908e-020)
(294.817 -72.2927 -3.04038e-020)
(294.638 -71.1444 0)
(294.475 -69.9993 -3.04359e-020)
(294.33 -68.8598 0)
(294.2 -67.7281 0)
(294.086 -66.6065 -3.04985e-020)
(293.988 -65.4975 0)
(293.907 -64.4034 -3.05456e-020)
(293.844 -63.3269 0)
(293.801 -62.2707 -3.05837e-020)
(293.78 -61.2373 0)
(293.784 -60.231 0)
(293.813 -59.2561 0)
(293.867 -58.3164 -3.06416e-020)
(293.948 -57.4167 0)
(294.053 -56.5626 -3.06557e-020)
(294.181 -55.7599 0)
(294.331 -55.015 -3.06672e-020)
(294.5 -54.3345 0)
(294.682 -53.7249 0)
(294.868 -53.1929 -3.06818e-020)
(295.057 -52.7443 0)
(295.248 -52.3842 -3.06946e-020)
(295.44 -52.1163 0)
(295.628 -51.9428 0)
(295.808 -51.8639 0)
(295.998 -51.8778 0)
(296.201 -51.9797 0)
(296.39 -52.1629 -3.06985e-020)
(296.563 -52.4185 0)
(296.731 -52.7351 -3.06837e-020)
(296.894 -53.0997 0)
(297.048 -53.4978 0)
(297.205 -53.9137 0)
(297.357 -54.3312 0)
(297.489 -54.7347 -3.07674e-020)
(297.614 -55.109 0)
(297.737 -55.4399 0)
(297.853 -55.7147 0)
(297.963 -55.9228 0)
(298.067 -56.0558 0)
(298.167 -56.1079 -3.09954e-020)
(298.263 -56.0755 0)
(298.352 -55.9575 -3.10355e-020)
(298.433 -55.7551 0)
(298.507 -55.4711 -3.10642e-020)
(298.578 -55.11 0)
(298.645 -54.6774 0)
(298.709 -54.1797 0)
(298.77 -53.6236 0)
(298.828 -53.0162 0)
(298.884 -52.3644 0)
(298.94 -51.6748 0)
(298.995 -50.9535 0)
(299.05 -50.2063 0)
(299.106 -49.4383 0)
(299.164 -48.6539 0)
(299.224 -47.857 0)
(299.286 -47.0509 0)
(299.351 -46.2381 0)
(299.419 -45.4208 0)
(299.489 -44.6006 0)
(299.561 -43.7786 0)
(299.635 -42.9556 0)
(299.708 -42.1321 0)
(299.781 -41.3084 0)
(299.85 -40.4847 0)
(299.917 -39.6611 0)
(299.981 -38.8375 0)
(300.044 -38.0138 0)
(300.106 -37.1896 0)
(300.17 -36.3644 0)
(300.236 -35.5379 0)
(300.306 -34.7091 0)
(300.382 -33.877 0)
(300.463 -33.0396 0)
(300.549 -32.1932 0)
(300.636 -31.3305 0)
(300.717 -30.4385 0)
(300.784 -29.4947 0)
(300.83 -28.4662 0)
(300.846 -27.3126 0)
(300.799 -25.9954 0)
(300.62 -24.4914 0)
(300.281 -22.8001 0)
(299.833 -20.94 0)
(299.315 -18.9382 0)
(298.64 -16.8215 0)
(297.573 -14.613 0)
(295.699 -12.3327 0)
(292.175 -9.9995 0)
(284.799 -7.63466 0)
(266.031 -5.25803 0)
(213.579 -2.8981 0)
(118.855 -1.02392 0)
(40.2488 -0.219239 0)
(9.89132 -0.0381412 0)
(2.0646 -0.00695084 0)
(0.399105 -0.00129969 0)
(0.0755135 -0.000243866 0)
(0.0142175 -4.57644e-005 0)
(0.00267346 -8.58447e-006 0)
(0.000502431 -1.60938e-006 0)
(9.43829e-005 -3.01543e-007 0)
(1.77231e-005 -5.64658e-008 0)
(3.32681e-006 -1.05673e-008 0)
(6.24254e-007 -1.97659e-009 0)
(1.17098e-007 -3.69543e-010 0)
(2.19562e-008 -6.92325e-011 0)
(4.11486e-009 -1.30594e-011 0)
(7.68703e-010 -2.42528e-012 0)
(1.43029e-010 -6.81416e-013 0)
(2.29623e-011 -1.46805e-013 0)
(4.67248e-012 -2.6734e-013 0)
(-4.62318e-012 -1.35618e-013 0)
(-2.39635e-013 -1.01952e-013 0)
(-5.63585e-012 -3.20814e-013 0)
(-2.16802e-012 -4.85009e-014 0)
(-4.65107e-012 -3.04278e-013 0)
(-3.55631e-012 -1.45945e-013 0)
(-3.46165e-012 -2.90819e-013 0)
(-5.0845e-012 -2.06819e-013 0)
(-3.5707e-012 -1.32942e-013 0)
(-4.14661e-012 -2.20485e-013 0)
)
;

boundaryField
{
    inlet
    {
        type            zeroGradient;
    }
    outlet
    {
        type            zeroGradient;
    }
    bottom
    {
        type            symmetryPlane;
    }
    top
    {
        type            symmetryPlane;
    }
    obstacle
    {
        type            zeroGradient;
    }
    defaultFaces
    {
        type            empty;
    }
}


// ************************************************************************* //
