/*--------------------------------*- C++ -*----------------------------------*\
| =========                 |                                                 |
| \\      /  F ield         | OpenFOAM: The Open Source CFD Toolbox           |
|  \\    /   O peration     | Version:  5.x                                   |
|   \\  /    A nd           | Web:      www.OpenFOAM.org                      |
|    \\/     M anipulation  |                                                 |
\*---------------------------------------------------------------------------*/
/*   Windows 32 and 64 bit porting by blueCAPE: http://www.bluecape.com.pt   *\
|  Based on Windows porting (2.0.x v4) by Symscape: http://www.symscape.com   |
\*---------------------------------------------------------------------------*/
FoamFile
{
    version     2.0;
    format      ascii;
    class       surfaceScalarField;
    location    "0.003";
    object      phi;
}
// * * * * * * * * * * * * * * * * * * * * * * * * * * * * * * * * * * * * * //

dimensions      [1 0 -1 0 0 0 0];

internalField   nonuniform List<scalar> 
1447
(
3.94351e-013
5.00919e-014
6.64357e-013
5.10356e-014
5.96856e-013
4.82739e-014
6.60805e-013
4.76286e-014
7.10543e-013
4.94257e-014
6.53699e-013
4.66988e-014
5.00933e-013
4.87388e-014
6.25278e-013
4.6102e-014
9.05942e-013
4.94951e-014
1.02673e-012
4.91551e-014
8.95284e-013
4.79269e-014
9.48575e-013
4.71498e-014
1.09424e-012
4.99809e-014
1.13687e-012
4.46657e-014
1.05871e-012
4.48599e-014
1.07647e-012
4.33542e-014
9.98313e-013
4.30905e-014
1.00187e-012
4.22787e-014
7.0699e-013
4.08562e-014
6.11067e-013
4.15709e-014
3.73035e-013
4.24868e-014
2.30926e-013
4.07174e-014
2.16716e-013
4.2355e-014
2.77112e-013
4.1224e-014
3.2685e-013
4.52138e-014
5.82645e-013
4.3035e-014
3.73035e-013
4.52832e-014
8.52651e-014
4.23481e-014
-6.03961e-014
4.36387e-014
5.32907e-014
4.34444e-014
-7.10543e-015
4.41036e-014
-1.45661e-013
4.29448e-014
-2.30926e-013
4.33958e-014
-1.35003e-013
4.40412e-014
-2.13163e-013
4.50473e-014
2.84217e-014
4.58314e-014
3.55271e-014
4.47004e-014
-3.19744e-014
4.6442e-014
1.42109e-014
4.44714e-014
5.68434e-014
4.43257e-014
1.13687e-013
4.52346e-014
4.9738e-014
4.59424e-014
2.4869e-013
4.47628e-014
7.10543e-014
4.58245e-014
3.90799e-014
4.59771e-014
-1.06581e-014
4.79061e-014
-1.10134e-013
4.84265e-014
-3.01981e-013
5.08898e-014
-1.52767e-013
5.33323e-014
-1.06581e-013
5.59067e-014
-1.06581e-014
5.68157e-014
-2.59348e-013
5.80785e-014
-1.45661e-013
5.8023e-014
7.4607e-014
5.96606e-014
2.06057e-013
6.24917e-014
1.7053e-013
5.99937e-014
2.80664e-013
6.39766e-014
3.76588e-013
5.98896e-014
2.8777e-013
6.06667e-014
1.98952e-013
5.91124e-014
1.52767e-013
5.84394e-014
1.27898e-013
5.86059e-014
2.38032e-013
5.58997e-014
1.35003e-013
5.61565e-014
1.52767e-013
5.66908e-014
-8.17124e-014
5.56638e-014
-1.66978e-013
5.73708e-014
-2.02505e-013
5.49352e-014
-1.27898e-013
5.76067e-014
-2.13163e-014
5.74332e-014
-1.03029e-013
5.72459e-014
1.10134e-013
5.82659e-014
4.9738e-014
5.86128e-014
3.19744e-014
5.87863e-014
-4.61853e-014
5.95982e-014
-6.75016e-014
5.84255e-014
-6.03961e-014
6.11386e-014
8.52651e-014
5.79051e-014
2.91323e-013
6.10137e-014
2.38032e-013
5.93761e-014
3.83693e-013
5.68434e-014
3.05533e-013
5.97022e-014
3.37508e-013
5.83839e-014
2.94875e-013
5.92304e-014
2.8777e-013
5.78773e-014
4.12115e-013
5.68989e-014
3.90799e-013
5.60663e-014
3.37508e-013
5.4276e-014
4.79616e-013
5.60593e-014
5.11591e-013
5.17711e-014
2.30926e-013
5.29646e-014
1.88294e-013
5.18197e-014
1.77636e-013
5.13825e-014
1.59872e-013
5.18752e-014
9.59233e-014
5.11674e-014
6.03961e-014
5.28882e-014
4.9738e-014
5.17988e-014
-6.39488e-014
5.23054e-014
-1.95399e-013
5.27217e-014
-3.62377e-013
5.4512e-014
-3.05533e-013
5.47201e-014
-2.77112e-013
5.64687e-014
-2.4869e-013
5.50462e-014
-2.4869e-013
5.6781e-014
-3.90799e-014
5.60801e-014
1.38556e-013
5.61287e-014
2.77112e-013
5.60871e-014
7.10543e-014
5.51434e-014
-2.4869e-014
5.7912e-014
-4.26326e-014
5.71765e-014
-5.68434e-014
5.85018e-014
2.13163e-014
5.98827e-014
7.10543e-015
6.28317e-014
1.06581e-013
6.14786e-014
2.52243e-013
6.37268e-014
2.80664e-013
6.23321e-014
4.79616e-013
6.51007e-014
1.09424e-012
6.16451e-014
3.06244e-012
6.51146e-014
9.49285e-012
6.38448e-014
2.98037e-011
6.37684e-014
9.26157e-011
6.34146e-014
2.83368e-010
6.27484e-014
8.54129e-010
6.28386e-014
2.53335e-009
6.1888e-014
7.39184e-009
6.18117e-014
2.12119e-008
6.28941e-014
5.98403e-008
6.04933e-014
1.65886e-007
6.10206e-014
4.51671e-007
6.02782e-014
1.20729e-006
5.93206e-014
3.16625e-006
5.94386e-014
8.14282e-006
5.78634e-014
2.05227e-005
5.71349e-014
5.06571e-005
5.69267e-014
0.000122372
5.43315e-014
0.000289088
5.40262e-014
0.000667301
5.11119e-014
0.00150371
4.83294e-014
0.00330467
4.66571e-014
0.00707521
4.44297e-014
0.0147394
4.44852e-014
0.0298384
4.23064e-014
0.0586133
3.8948e-014
0.111544
3.6797e-014
0.20529
3.4743e-014
0.364729
3.07671e-014
0.624358
2.82899e-014
1.02795
2.66454e-014
1.62512
2.44804e-014
2.46402
2.02893e-014
3.58055
1.9526e-014
4.98643
1.79301e-014
6.65904
1.71738e-014
8.5435
1.50296e-014
10.5773
1.45717e-014
12.7062
1.23027e-014
14.8883
1.00059e-014
17.092
8.40994e-015
19.294
7.79932e-015
21.4773
5.7454e-015
23.629
3.39312e-015
25.7398
2.31759e-015
27.8025
1.58901e-015
29.8119
2.35922e-016
31.764
-6.31439e-016
33.6556
-2.27596e-015
35.4847
-3.40006e-015
37.2495
-5.2805e-015
38.9488
-6.48093e-015
40.582
-7.00828e-015
42.1486
-8.06993e-015
43.6484
-9.33628e-015
45.0814
-1.1019e-014
46.4485
-1.21708e-014
47.7478
-1.31631e-014
48.9869
-1.39819e-014
50.1491
-1.48458e-014
51.2718
-1.61191e-014
52.2953
-1.65319e-014
53.2925
-1.74687e-014
54.225
-1.8166e-014
55.0435
-1.84228e-014
55.9017
-1.86934e-014
56.6391
-1.89744e-014
57.2836
-1.9023e-014
57.9675
-1.89675e-014
58.5818
-1.90126e-014
59.0615
-1.94046e-014
59.53
-1.98452e-014
60.026
-2.00187e-014
60.4372
-1.96232e-014
60.7286
-1.9356e-014
60.9982
-1.8905e-014
61.302
-1.86032e-014
61.5763
-1.86136e-014
61.7483
-1.83291e-014
61.8371
-1.78295e-014
61.9218
-1.74791e-014
62.0522
-1.71581e-014
62.1853
-1.69656e-014
62.2283
-1.67834e-014
62.1678
-1.65631e-014
62.1067
-1.66325e-014
62.1324
-1.65458e-014
62.1907
-1.62023e-014
62.1919
-1.60601e-014
62.1597
-1.59595e-014
62.0887
-1.58693e-014
62.0365
-1.58762e-014
62.0134
-1.59248e-014
62.0099
-1.59751e-014
62.0169
-1.59421e-014
62.0341
-1.59091e-014
62.0074
-1.56108e-014
61.9506
-1.53506e-014
61.9107
-1.53315e-014
61.8917
-1.52673e-014
61.8863
-1.52673e-014
61.8833
-1.52378e-014
61.8716
-1.51337e-014
61.8055
-1.50106e-014
61.7205
-1.50591e-014
61.6714
-1.50678e-014
61.6516
-1.49897e-014
61.659
-1.49845e-014
61.6854
-1.50123e-014
61.6884
-1.50279e-014
61.665
-1.51719e-014
61.4661
-1.53749e-014
60.5882
-1.55813e-014
57.4777
-1.56923e-014
53.5338
-1.53124e-014
49.8043
-1.48805e-014
46.6171
-1.45179e-014
44.0628
-1.44277e-014
42.1477
-1.45196e-014
40.7922
-1.47642e-014
39.8881
-1.51459e-014
39.3245
-1.55154e-014
39.0032
-1.60323e-014
38.8432
-1.6584e-014
38.7807
-1.73368e-014
38.7673
-1.797e-014
38.7809
-1.86465e-014
38.8286
-1.93144e-014
38.8666
-1.99285e-014
38.8938
-2.05565e-014
38.9122
-2.11151e-014
38.9247
-2.16511e-014
38.932
-2.20761e-014
38.9355
-2.2482e-014
38.9369
-2.25965e-014
38.936
-2.27006e-014
38.9326
-2.27353e-014
38.9277
-2.27648e-014
38.9191
-2.28186e-014
38.9016
-2.28203e-014
38.8702
-2.2796e-014
38.8083
-2.28706e-014
38.6884
-2.31083e-014
38.4527
-2.33962e-014
37.9779
-2.39288e-014
37.0798
-2.41005e-014
35.0458
-2.31187e-014
29.5321
-2.28064e-014
12.8147
-1.96388e-014
3.82625
-1.10719e-014
0.81307
-7.21905e-015
0.145125
-6.26062e-015
0.025003
-6.19036e-015
0.00428355
-6.29965e-015
0.000733333
-6.15914e-015
0.000125551
-6.44363e-015
2.14986e-005
-6.38899e-015
3.68204e-006
-6.70471e-015
6.30756e-007
-6.42628e-015
1.08078e-007
-6.84435e-015
1.85232e-008
-6.68736e-015
3.17543e-009
-6.85303e-015
5.44499e-010
-6.88859e-015
9.33782e-011
-7.08808e-015
1.6001e-011
-6.96058e-015
2.72937e-012
-7.02736e-015
4.67404e-013
-6.75415e-015
8.59313e-014
-6.8643e-015
1.95399e-014
-6.71858e-015
-1.31006e-014
-6.79925e-015
-9.32587e-015
-6.68215e-015
9.76996e-015
-6.64139e-015
2.13163e-014
-6.57287e-015
2.75335e-014
-6.57287e-015
3.41949e-014
-6.55986e-015
3.68594e-014
-6.72899e-015
4.86278e-014
-6.66307e-015
2.02061e-014
-6.7342e-015
1.5099e-014
-6.67001e-015
-8.65974e-015
-6.68736e-015
-1.90958e-014
-6.66134e-015
-6.38552e-015
4.3201e-012
2.16005e-012
2.41585e-012
2.67164e-012
2.38742e-012
4.63274e-012
6.45173e-012
6.65068e-012
7.04858e-012
5.57066e-012
5.40012e-012
4.74643e-012
2.27374e-012
1.27898e-012
1.27898e-012
1.64846e-012
1.90425e-012
2.98428e-012
3.41061e-012
4.94538e-012
3.63798e-012
4.60432e-012
4.23483e-012
5.22959e-012
4.9738e-012
2.95586e-012
1.87583e-012
1.98952e-012
2.18847e-012
5.96856e-013
-8.2423e-013
-6.82121e-013
1.19371e-012
1.59162e-012
1.02318e-012
-7.95808e-013
-4.54747e-013
-1.33582e-012
1.13687e-013
1.16529e-012
7.38964e-013
2.78533e-012
2.16005e-012
5.48539e-012
6.73595e-012
8.6402e-012
8.83915e-012
8.07177e-012
5.91172e-012
5.96856e-012
7.16227e-012
6.87805e-012
4.77485e-012
5.42855e-012
2.64322e-012
1.7053e-012
5.68434e-013
-8.52651e-014
-1.0516e-012
-4.83169e-013
-8.81073e-013
-9.09495e-013
-1.79057e-012
-3.12639e-013
-2.84217e-014
-9.09495e-013
-9.9476e-013
6.25278e-013
1.67688e-012
1.64846e-012
1.59162e-012
1.87583e-012
1.27898e-012
8.81073e-013
6.25278e-013
2.10321e-012
1.10845e-012
9.37916e-013
9.9476e-013
1.36424e-012
1.44951e-012
-6.53699e-013
-8.2423e-013
-2.38742e-012
-1.02318e-012
-2.92744e-012
-2.6148e-012
-3.12639e-013
-3.04112e-012
-1.81899e-012
-1.10845e-012
-7.38964e-013
3.41061e-013
1.64846e-012
9.66338e-013
1.0516e-012
1.3074e-012
2.92744e-012
3.38218e-012
2.58638e-012
2.55795e-013
-1.27898e-012
-8.2423e-013
6.25278e-013
2.27374e-013
1.27898e-012
2.84217e-012
4.80327e-012
4.718e-012
3.78009e-012
4.60432e-012
3.80851e-012
4.46221e-012
4.46221e-012
4.3201e-012
4.51905e-012
4.94538e-012
8.98126e-012
2.20837e-011
6.58247e-011
2.0728e-010
6.46367e-010
1.98253e-009
5.97771e-009
1.77317e-008
5.1741e-008
1.48482e-007
4.18881e-007
1.1612e-006
3.16169e-006
8.45102e-006
2.21637e-005
5.69998e-005
0.000143659
0.0003546
0.000856606
0.00202362
0.00467111
0.010526
0.0231327
0.0495265
0.103176
0.208869
0.410293
0.780805
1.43703
2.5531
4.37051
7.19565
11.3759
17.2481
25.0639
34.905
46.6133
59.8045
74.0408
88.9436
104.218
119.644
135.058
150.341
165.403
180.178
194.618
208.683
222.348
235.589
248.393
260.746
272.642
284.074
295.04
305.539
315.57
325.139
334.235
342.908
351.044
358.903
366.067
373.048
379.575
385.305
391.312
396.474
400.985
405.773
410.073
413.43
416.71
420.182
423.061
425.1
426.987
429.114
431.034
432.238
432.86
433.453
434.366
435.297
435.598
435.175
434.747
434.927
435.335
435.343
435.118
434.621
434.256
434.094
434.069
434.118
434.239
434.052
433.654
433.375
433.242
433.204
433.183
433.101
432.638
432.043
431.7
431.561
431.613
431.798
431.818
431.655
430.263
424.117
402.344
374.736
348.63
326.32
308.44
295.034
285.545
279.217
275.271
273.022
271.903
271.465
271.371
271.467
271.8
272.066
272.257
272.385
272.473
272.524
272.548
272.559
272.552
272.528
272.494
272.433
272.311
272.091
271.658
270.819
269.169
265.845
259.558
245.321
206.725
89.7029
26.7837
5.69149
1.01588
0.175021
0.0299848
0.00513333
0.000878858
0.00015049
2.57743e-005
4.41529e-006
7.56544e-007
1.29662e-007
2.22277e-008
3.81128e-009
6.53655e-010
1.12223e-010
1.93356e-011
3.35376e-012
7.12319e-013
3.32179e-013
3.2685e-013
3.83693e-013
1.72307e-013
1.52767e-013
1.40332e-013
-9.76996e-014
-8.88178e-015
1.65201e-013
1.75859e-013
1.75859e-013
1.95399e-013
3.42837e-013
2.94875e-013
2.55795e-013
2.55795e-013
3.12639e-013
3.12639e-013
2.84217e-013
3.12639e-013
3.12639e-013
2.55795e-013
2.27374e-013
2.27374e-013
1.98952e-013
2.27374e-013
2.55795e-013
2.84217e-013
2.55795e-013
2.84217e-013
2.27374e-013
2.55795e-013
2.55795e-013
2.55795e-013
1.98952e-013
1.98952e-013
2.27374e-013
2.27374e-013
1.98952e-013
2.27374e-013
1.98952e-013
1.98952e-013
1.7053e-013
2.27374e-013
1.7053e-013
1.7053e-013
1.98952e-013
1.7053e-013
2.27374e-013
2.27374e-013
1.98952e-013
1.42109e-013
1.13687e-013
5.68434e-014
5.68434e-014
2.84217e-014
8.52651e-014
8.52651e-014
2.84217e-014
2.84217e-014
0
0
2.84217e-014
0
0
0
0
-2.84217e-014
-2.84217e-014
2.84217e-014
0
-8.52651e-014
-5.68434e-014
-5.68434e-014
-8.52651e-014
-5.68434e-014
-1.13687e-013
-1.13687e-013
-8.52651e-014
-1.13687e-013
-1.42109e-013
-1.7053e-013
-1.42109e-013
-1.13687e-013
-1.13687e-013
-1.13687e-013
-1.13687e-013
-5.68434e-014
-1.13687e-013
-1.42109e-013
-1.13687e-013
-8.52651e-014
-8.52651e-014
-1.42109e-013
-8.52651e-014
-8.52651e-014
-1.13687e-013
-8.52651e-014
-2.84217e-014
-8.52651e-014
-5.68434e-014
-1.13687e-013
-8.52651e-014
-8.52651e-014
-8.52651e-014
-8.52651e-014
-1.13687e-013
-5.68434e-014
-5.68434e-014
-2.84217e-014
0
5.68434e-014
8.52651e-014
8.52651e-014
8.70415e-014
-8.83408e-016
8.74856e-014
-1.06295e-015
8.26006e-014
-9.6971e-016
9.05942e-014
-9.77517e-016
9.85878e-014
-1.09895e-015
8.70415e-014
-1.00831e-015
9.63674e-014
-1.09895e-015
1.04805e-013
-1.1241e-015
9.37028e-014
-1.12844e-015
1.12355e-013
-1.22255e-015
9.9476e-014
-1.22992e-015
7.41629e-014
-1.22992e-015
8.08242e-014
-1.30972e-015
5.9508e-014
-1.27892e-015
4.66294e-014
-1.29454e-015
4.92939e-014
-1.33574e-015
3.5083e-014
-1.34615e-015
4.21885e-014
-1.33574e-015
4.39648e-014
-1.32229e-015
2.13163e-014
-1.27676e-015
4.30767e-014
-1.23035e-015
4.57412e-014
-1.27112e-015
4.26326e-014
-1.18959e-015
4.08562e-014
-1.2425e-015
3.37508e-014
-1.15229e-015
5.01821e-014
-1.2516e-015
6.30607e-014
-1.17311e-015
7.86038e-014
-1.21734e-015
8.34888e-014
-1.14578e-015
7.14984e-014
-1.22471e-015
6.35048e-014
-1.21517e-015
6.52811e-014
-1.21864e-015
8.61533e-014
-1.28933e-015
7.68274e-014
-1.38171e-015
5.63993e-014
-1.31319e-015
6.61693e-014
-1.34701e-015
6.92779e-014
-1.27936e-015
6.9722e-014
-1.285e-015
8.17124e-014
-1.25247e-015
7.99361e-014
-1.30148e-015
9.05942e-014
-1.23079e-015
9.14824e-014
-1.2837e-015
8.57092e-014
-1.31796e-015
8.65974e-014
-1.25681e-015
7.50511e-014
-1.25724e-015
7.28306e-014
-1.27068e-015
6.4837e-014
-1.25854e-015
7.06102e-014
-1.3249e-015
6.75016e-014
-1.29324e-015
5.90639e-014
-1.36436e-015
4.30767e-014
-1.31058e-015
3.06422e-014
-1.25854e-015
2.17604e-014
-1.26505e-015
8.88178e-015
-1.22081e-015
-9.76996e-015
-1.31232e-015
-1.24345e-014
-1.20693e-015
3.55271e-015
-1.2065e-015
1.06581e-014
-1.26245e-015
-6.21725e-015
-1.23773e-015
-1.90958e-014
-1.285e-015
-6.21725e-015
-1.29367e-015
-9.76996e-015
-1.23773e-015
-8.88178e-015
-1.25421e-015
-1.06581e-014
-1.35395e-015
5.32907e-015
-1.31709e-015
-6.66134e-015
-1.36176e-015
-8.88178e-015
-1.33053e-015
-3.10862e-015
-1.38344e-015
-7.54952e-015
-1.33964e-015
-7.10543e-015
-1.37217e-015
3.10862e-015
-1.32143e-015
9.32587e-015
-1.39732e-015
7.54952e-015
-1.33834e-015
7.99361e-015
-1.40382e-015
8.43769e-015
-1.44286e-015
-9.32587e-015
-1.37954e-015
9.32587e-015
-1.41814e-015
7.54952e-015
-1.40816e-015
7.10543e-015
-1.36479e-015
7.10543e-015
-1.39819e-015
-3.10862e-015
-1.38821e-015
-1.77636e-015
-1.40209e-015
-1.68754e-014
-1.39732e-015
-2.13163e-014
-1.36566e-015
-8.88178e-015
-1.3752e-015
1.77636e-015
-1.30408e-015
-5.77316e-015
-1.44069e-015
-4.88498e-015
-1.31492e-015
-3.55271e-015
-1.39038e-015
4.44089e-015
-1.37043e-015
8.88178e-016
-1.39428e-015
-3.10862e-015
-1.31145e-015
-2.22045e-015
-1.32967e-015
-1.33227e-015
-1.31405e-015
7.10543e-015
-1.30495e-015
2.44249e-014
-1.33791e-015
1.95399e-014
-1.419e-015
2.79776e-014
-1.43288e-015
2.79776e-014
-1.49273e-015
1.06581e-014
-1.49273e-015
-9.32587e-015
-1.49273e-015
6.66134e-015
-1.47148e-015
3.55271e-015
-1.51528e-015
-5.32907e-015
-1.41597e-015
-1.42109e-014
-1.63194e-015
-9.32587e-015
-1.42724e-015
-7.54952e-015
-1.51875e-015
-1.77636e-015
-1.46454e-015
-1.37668e-014
-1.49403e-015
-2.39808e-014
-1.49707e-015
-1.68754e-014
-1.39428e-015
3.10862e-015
-1.48362e-015
7.10543e-015
-1.38821e-015
-7.54952e-015
-1.41033e-015
-9.76996e-015
-1.39645e-015
-1.33227e-015
-1.35308e-015
-2.66454e-015
-1.41814e-015
1.33227e-015
-1.34615e-015
-9.76996e-015
-1.32793e-015
-1.24345e-014
-1.31839e-015
-3.10862e-015
-1.32012e-015
4.44089e-015
-1.31232e-015
7.54952e-015
-1.30972e-015
4.88498e-015
-1.35005e-015
7.99361e-015
-1.35525e-015
-1.77636e-015
-1.40686e-015
9.32587e-015
-1.3262e-015
1.24345e-014
-1.38301e-015
7.99361e-015
-1.31405e-015
1.46549e-014
-1.49446e-015
4.88498e-015
-1.37737e-015
-1.24345e-014
-1.42681e-015
-7.10543e-015
-1.40513e-015
-1.68754e-014
-1.39689e-015
-1.55431e-014
-1.40079e-015
-2.66454e-015
-1.4589e-015
2.22045e-015
-1.38735e-015
7.10543e-015
-1.37433e-015
-7.54952e-015
-1.3739e-015
8.88178e-015
-1.44502e-015
8.88178e-016
-1.43418e-015
-4.44089e-015
-1.40816e-015
-8.88178e-016
-1.38865e-015
-1.37668e-014
-1.38648e-015
-1.33227e-014
-1.36002e-015
-6.21725e-015
-1.29584e-015
-1.06581e-014
-1.4177e-015
-8.88178e-015
-1.31275e-015
-8.88178e-015
-1.3739e-015
-1.36219e-015
8.88178e-014
2.0961e-013
2.73559e-013
2.84217e-013
3.16192e-013
3.30402e-013
2.59348e-013
3.23297e-013
2.13163e-013
2.59348e-013
3.44613e-013
3.94351e-013
3.76588e-013
4.15668e-013
2.8777e-013
2.8777e-013
4.83169e-013
4.61853e-013
5.64881e-013
5.08038e-013
2.8777e-013
3.58824e-013
2.62901e-013
2.8777e-013
2.98428e-013
2.34479e-013
2.45137e-013
3.30402e-013
3.55271e-013
3.41061e-013
3.6593e-013
3.90799e-013
4.83169e-013
4.01457e-013
3.55271e-013
4.29878e-013
5.40012e-013
6.92779e-013
5.47118e-013
6.00409e-013
6.96332e-013
7.42517e-013
7.53175e-013
6.57252e-013
5.71987e-013
6.2883e-013
5.11591e-013
4.79616e-013
4.36984e-013
5.43565e-013
5.04485e-013
5.11591e-013
3.73035e-013
2.94875e-013
1.03029e-013
-5.32907e-014
-1.45661e-013
-2.8777e-013
-2.45137e-013
-2.34479e-013
-2.77112e-013
-3.44613e-013
-3.30402e-013
-3.48166e-013
-2.80664e-013
-2.77112e-013
-3.2685e-013
-2.98428e-013
-9.59233e-014
-9.23706e-014
-1.7053e-013
-9.59233e-014
-4.61853e-014
-2.13163e-014
-1.06581e-014
3.90799e-014
8.17124e-014
1.88294e-013
8.88178e-014
7.10543e-015
3.55271e-014
8.17124e-014
2.84217e-014
4.26326e-014
-2.13163e-014
-2.84217e-014
4.26326e-014
3.55271e-015
5.32907e-014
-4.26326e-014
3.55271e-015
-9.59233e-014
-2.06057e-013
-1.27898e-013
-1.45661e-013
-1.35003e-013
-7.81597e-014
-9.59233e-014
-3.19744e-014
1.06581e-014
-1.77636e-014
-3.19744e-014
4.26326e-014
-6.03961e-014
-3.90799e-014
-6.03961e-014
-3.55271e-015
-5.68434e-014
-3.90799e-014
8.88178e-014
1.84741e-013
2.16716e-013
2.27374e-013
2.02505e-013
1.74083e-013
1.84741e-013
2.23821e-013
1.52767e-013
3.90799e-014
3.55271e-014
-4.26326e-014
-8.52651e-014
-7.4607e-014
-5.32907e-014
-1.06581e-013
-4.26326e-014
-3.90799e-014
-9.59233e-014
-1.45661e-013
-1.3145e-013
-2.13163e-014
0
1.77636e-014
-8.52651e-014
-1.1724e-013
-1.20792e-013
-1.77636e-013
-8.17124e-014
-6.75016e-014
-6.75016e-014
-3.19744e-014
6.75016e-014
1.59872e-013
1.1724e-013
2.84217e-014
-3.55271e-014
-1.13687e-013
-9.23706e-014
-7.10543e-014
)
;

boundaryField
{
    inlet
    {
        type            calculated;
        value           nonuniform List<scalar> 2(-2.91038e-012 -2.18279e-013);
    }
    outlet
    {
        type            calculated;
        value           nonuniform List<scalar> 2(2.91038e-014 3.03165e-015);
    }
    bottom
    {
        type            symmetryPlane;
        value           uniform 0;
    }
    top
    {
        type            symmetryPlane;
        value           uniform 0;
    }
    obstacle
    {
        type            calculated;
        value           nonuniform List<scalar> 
102
(
-1.52795e-014
-8.91305e-014
1.41947e-028
2.73042e-041
4.2856e-054
5.2928e-067
5.47744e-080
4.86285e-093
3.67813e-106
2.51894e-119
1.57538e-132
9.13023e-146
4.87673e-159
2.3537e-172
1.03265e-185
4.25393e-199
1.64119e-212
5.79581e-226
1.8929e-239
5.92142e-253
1.81873e-266
5.5802e-280
1.63071e-293
4.51101e-307
0
0
0
0
0
0
0
0
0
0
0
0
0
0
0
0
0
0
0
0
0
0
0
0
0
0
0
0
0
0
0
0
0
0
0
0
0
0
0
0
0
0
0
0
0
0
0
0
0
0
0
0
0
0
0
0
0
0
-4.11063e-317
-1.77104e-302
-9.85962e-288
-6.82255e-273
-5.0812e-258
-4.27997e-243
-3.2967e-228
-2.06699e-213
-2.58292e-198
-1.3811e-183
-8.94291e-169
-3.33783e-154
-1.606e-139
-9.52003e-125
-6.96132e-110
-1.33621e-094
-1.15155e-079
-1.00471e-064
-1.54282e-049
-2.9614e-034
)
;
    }
    defaultFaces
    {
        type            empty;
        value           nonuniform 0();
    }
}


// ************************************************************************* //
