/*--------------------------------*- C++ -*----------------------------------*\
| =========                 |                                                 |
| \\      /  F ield         | OpenFOAM: The Open Source CFD Toolbox           |
|  \\    /   O peration     | Version:  5.x                                   |
|   \\  /    A nd           | Web:      www.OpenFOAM.org                      |
|    \\/     M anipulation  |                                                 |
\*---------------------------------------------------------------------------*/
/*   Windows 32 and 64 bit porting by blueCAPE: http://www.bluecape.com.pt   *\
|  Based on Windows porting (2.0.x v4) by Symscape: http://www.symscape.com   |
\*---------------------------------------------------------------------------*/
FoamFile
{
    version     2.0;
    format      ascii;
    class       volVectorField;
    location    "0.003";
    object      U;
}
// * * * * * * * * * * * * * * * * * * * * * * * * * * * * * * * * * * * * * //

dimensions      [0 1 -1 0 0 0 0];

internalField   nonuniform List<vector> 
1000
(
(4.25949e-013 9.13165e-013 0)
(1.26034e-012 9.2994e-013 0)
(1.25451e-012 8.77426e-013 0)
(1.2195e-012 8.69403e-013 0)
(1.42956e-012 9.14624e-013 0)
(1.34203e-012 8.67215e-013 0)
(1.17282e-012 9.10248e-013 0)
(8.63568e-013 8.55545e-013 0)
(1.69213e-012 9.21917e-013 0)
(1.77965e-012 9.18271e-013 0)
(2.14725e-012 8.92743e-013 0)
(1.61044e-012 8.8399e-013 0)
(2.15892e-012 9.51821e-013 0)
(2.25811e-012 8.43146e-013 0)
(2.0889e-012 8.54816e-013 0)
(2.39232e-012 8.24912e-013 0)
(1.80883e-012 8.19806e-013 0)
(2.27562e-012 8.0376e-013 0)
(1.62794e-012 7.71668e-013 0)
(1.237e-012 7.88444e-013 0)
(1.16115e-012 7.99384e-013 0)
(3.26756e-013 7.55622e-013 0)
(7.0019e-013 7.87714e-013 0)
(2.27562e-013 7.62186e-013 0)
(6.24336e-013 8.41687e-013 0)
(9.86101e-013 7.9209e-013 0)
(9.80267e-013 8.43146e-013 0)
(6.30171e-013 7.84797e-013 0)
(-3.03416e-013 8.07407e-013 0)
(1.16698e-013 8.0376e-013 0)
(1.16698e-013 8.24912e-013 0)
(-1.51708e-013 8.02302e-013 0)
(-5.13473e-013 8.16159e-013 0)
(-2.56736e-013 8.271e-013 0)
(-4.43454e-013 8.53357e-013 0)
(-1.92552e-013 8.57004e-013 0)
(2.39232e-013 8.3877e-013 0)
(-1.40038e-013 8.7305e-013 0)
(1.75048e-014 8.36582e-013 0)
(5.83492e-014 8.30747e-013 0)
(1.75048e-013 8.3877e-013 0)
(2.33397e-013 8.58463e-013 0)
(5.25143e-014 8.23453e-013 0)
(6.59346e-013 8.54086e-013 0)
(-2.10057e-013 8.40958e-013 0)
(2.62571e-013 8.75967e-013 0)
(-2.27562e-013 8.80344e-013 0)
(-4.84298e-013 9.32858e-013 0)
(-2.85911e-013 9.73702e-013 0)
(-6.00997e-013 1.02476e-012 0)
(3.20921e-013 1.0408e-012 0)
(-4.14279e-013 1.06487e-012 0)
(-5.13473e-013 1.05612e-012 0)
(-1.75048e-014 1.09332e-012 0)
(3.3259e-013 1.14729e-012 0)
(4.25949e-013 1.10936e-012 0)
(2.39232e-013 1.19178e-012 0)
(8.11054e-013 1.11228e-012 0)
(5.71822e-013 1.12979e-012 0)
(6.59346e-013 1.10936e-012 0)
(3.03416e-013 1.09915e-012 0)
(2.15892e-013 1.10426e-012 0)
(4.37619e-013 1.04591e-012 0)
(2.74241e-013 1.06779e-012 0)
(4.02609e-013 1.07508e-012 0)
(1.57543e-013 1.05466e-012 0)
(-3.9094e-013 1.08967e-012 0)
(-3.03416e-013 1.04153e-012 0)
(-6.06832e-013 1.09405e-012 0)
(2.68406e-013 1.08821e-012 0)
(-4.37619e-013 1.07946e-012 0)
(9.91936e-014 1.10207e-012 0)
(2.85911e-013 1.10572e-012 0)
(4.08444e-014 1.10572e-012 0)
(2.33397e-014 1.11885e-012 0)
(-1.80883e-013 1.09551e-012 0)
(-1.40038e-013 1.14948e-012 0)
(-8.75238e-014 1.07946e-012 0)
(4.31784e-013 1.15021e-012 0)
(5.25143e-013 1.11593e-012 0)
(6.53511e-013 1.06123e-012 0)
(6.65181e-013 1.11593e-012 0)
(7.64375e-013 1.08967e-012 0)
(4.37619e-013 1.10645e-012 0)
(7.52705e-013 1.08311e-012 0)
(5.83492e-013 1.05758e-012 0)
(9.68597e-013 1.04226e-012 0)
(5.54317e-013 1.01017e-012 0)
(8.28559e-013 1.04153e-012 0)
(1.23117e-012 9.54739e-013 0)
(6.24336e-013 9.84643e-013 0)
(4.37619e-013 9.59115e-013 0)
(2.39232e-013 9.47445e-013 0)
(4.60959e-013 9.58386e-013 0)
(1.75048e-013 9.4234e-013 0)
(2.68406e-013 9.80996e-013 0)
(2.30639e-026 9.56927e-013 0)
(1.63378e-013 9.62762e-013 0)
(-3.61765e-013 9.74432e-013 0)
(-5.83492e-013 1.00652e-012 0)
(-6.76851e-013 1.00652e-012 0)
(-4.72629e-013 1.03862e-012 0)
(-6.30171e-013 1.00725e-012 0)
(-3.9094e-013 1.04372e-012 0)
(-4.84298e-013 1.02695e-012 0)
(2.27562e-013 1.0357e-012 0)
(4.72629e-013 1.03424e-012 0)
(4.66794e-013 1.02038e-012 0)
(-5.83492e-014 1.06633e-012 0)
(-7.5854e-014 1.04737e-012 0)
(-1.40038e-013 1.06633e-012 0)
(-5.01558e-027 1.08748e-012 0)
(2.91746e-014 1.14802e-012 0)
(1.75048e-014 1.11812e-012 0)
(5.13473e-013 1.16261e-012 0)
(3.96775e-013 1.13708e-012 0)
(7.93549e-013 1.19251e-012 0)
(1.49957e-012 1.12468e-012 0)
(3.32007e-012 1.19908e-012 0)
(1.12089e-011 1.17355e-012 0)
(3.37608e-011 1.17209e-012 0)
(1.06674e-010 1.16771e-012 0)
(3.28453e-010 1.15458e-012 0)
(9.97777e-010 1.15823e-012 0)
(2.98469e-009 1.14e-012 0)
(8.78185e-009 1.14146e-012 0)
(2.5418e-008 1.17355e-012 0)
(7.23367e-008 1.12614e-012 0)
(2.02334e-007 1.13635e-012 0)
(5.55997e-007 1.12614e-012 0)
(1.50022e-006 1.10936e-012 0)
(3.97275e-006 1.11958e-012 0)
(1.0319e-005 1.09551e-012 0)
(2.6275e-005 1.08821e-012 0)
(6.55424e-005 1.08384e-012 0)
(0.00016006 1.03278e-012 0)
(0.000382383 1.03278e-012 0)
(0.000892949 9.8756e-013 0)
(0.00203651 9.36505e-013 0)
(0.00453172 9.10977e-013 0)
(0.00982894 8.69404e-013 0)
(0.0207548 8.78155e-013 0)
(0.0426143 8.40232e-013 0)
(0.0849605 7.69493e-013 0)
(0.164228 7.3011e-013 0)
(0.307286 6.95107e-013 0)
(0.555593 6.14257e-013 0)
(0.969012 5.77042e-013 0)
(1.62752 5.4866e-013 0)
(2.62841 5.05865e-013 0)
(4.07674 4.13657e-013 0)
(6.06841 3.98103e-013 0)
(8.66769 3.62405e-013 0)
(11.8846 3.49512e-013 0)
(15.6677 2.97674e-013 0)
(19.9279 2.89067e-013 0)
(24.572 2.40758e-013 0)
(29.5206 1.96684e-013 0)
(34.7117 1.66673e-013 0)
(40.098 1.54339e-013 0)
(45.6438 1.13124e-013 0)
(51.322 6.66521e-014 0)
(57.1114 4.40821e-014 0)
(62.9956 2.95548e-014 0)
(68.9612 1.52452e-015 0)
(74.9971 -2.43984e-014 0)
(81.0941 -6.60392e-014 0)
(87.2441 -9.59345e-014 0)
(93.44 -1.4089e-013 0)
(99.6753 -1.77536e-013 0)
(105.944 -1.9764e-013 0)
(112.241 -2.27743e-013 0)
(118.562 -2.61252e-013 0)
(124.9 -3.04479e-013 0)
(131.252 -3.48052e-013 0)
(137.612 -3.84645e-013 0)
(143.978 -4.16146e-013 0)
(150.341 -4.4647e-013 0)
(156.706 -4.86552e-013 0)
(163.051 -5.13293e-013 0)
(169.4 -5.44955e-013 0)
(175.712 -5.74554e-013 0)
(182.014 -5.94766e-013 0)
(188.29 -6.13024e-013 0)
(194.517 -6.312e-013 0)
(200.719 -6.45838e-013 0)
(206.873 -6.59022e-013 0)
(212.959 -6.72712e-013 0)
(218.987 -6.96352e-013 0)
(224.944 -7.24974e-013 0)
(230.804 -7.45483e-013 0)
(236.556 -7.4986e-013 0)
(242.194 -7.52777e-013 0)
(247.691 -7.50586e-013 0)
(253.015 -7.49636e-013 0)
(258.144 -7.54537e-013 0)
(263.052 -7.56351e-013 0)
(267.702 -7.50612e-013 0)
(272.052 -7.45399e-013 0)
(276.059 -7.40379e-013 0)
(279.688 -7.37485e-013 0)
(282.906 -7.35163e-013 0)
(285.679 -7.31779e-013 0)
(287.984 -7.36359e-013 0)
(289.817 -7.36262e-013 0)
(291.207 -7.28185e-013 0)
(292.181 -7.24048e-013 0)
(292.827 -7.21228e-013 0)
(293.198 -7.19255e-013 0)
(293.333 -7.2021e-013 0)
(293.357 -7.22537e-013 0)
(293.347 -7.25037e-013 0)
(293.301 -7.24256e-013 0)
(293.212 -7.22953e-013 0)
(293.102 -7.13275e-013 0)
(292.987 -7.0345e-013 0)
(292.906 -6.99705e-013 0)
(292.878 -6.97267e-013 0)
(292.868 -6.9614e-013 0)
(292.866 -6.93701e-013 0)
(292.886 -6.90767e-013 0)
(292.923 -6.87043e-013 0)
(292.947 -6.8886e-013 0)
(292.96 -6.90018e-013 0)
(292.971 -6.88989e-013 0)
(292.976 -6.87992e-013 0)
(292.989 -6.87564e-013 0)
(293.019 -6.88197e-013 0)
(293.073 -6.93647e-013 0)
(293.19 -7.03139e-013 0)
(293.454 -7.18505e-013 0)
(293.559 -7.4444e-013 0)
(293.272 -7.7605e-013 0)
(292.947 -8.12674e-013 0)
(292.825 -8.53012e-013 0)
(292.862 -9.02368e-013 0)
(292.941 -9.55797e-013 0)
(293.011 -1.01129e-012 0)
(293.055 -1.06476e-012 0)
(293.075 -1.11296e-012 0)
(293.083 -1.16327e-012 0)
(293.084 -1.21181e-012 0)
(293.081 -1.26643e-012 0)
(293.075 -1.31468e-012 0)
(293.061 -1.36516e-012 0)
(293.059 -1.41196e-012 0)
(293.068 -1.45799e-012 0)
(293.069 -1.5027e-012 0)
(293.068 -1.5455e-012 0)
(293.07 -1.58368e-012 0)
(293.076 -1.61589e-012 0)
(293.082 -1.64358e-012 0)
(293.083 -1.65368e-012 0)
(293.082 -1.66157e-012 0)
(293.079 -1.6655e-012 0)
(293.069 -1.6662e-012 0)
(293.041 -1.6672e-012 0)
(292.972 -1.66965e-012 0)
(292.827 -1.66963e-012 0)
(292.538 -1.67157e-012 0)
(291.984 -1.68031e-012 0)
(290.918 -1.69519e-012 0)
(288.809 -1.72887e-012 0)
(284.642 -1.75326e-012 0)
(276.236 -1.70397e-012 0)
(256.394 -1.6871e-012 0)
(198.433 -1.60411e-012 0)
(95.2059 -1.20023e-012 0)
(25.3706 -9.53736e-013 0)
(5.1807 -8.97314e-013 0)
(0.936381 -8.99251e-013 0)
(0.162016 -9.2992e-013 0)
(0.0277861 -9.07697e-013 0)
(0.00475838 -9.51093e-013 0)
(0.000814773 -9.40518e-013 0)
(0.000139533 -9.85374e-013 0)
(2.39006e-005 -9.48541e-013 0)
(4.09484e-006 -1.00725e-012 0)
(7.01728e-007 -9.83915e-013 0)
(1.20284e-007 -1.00507e-012 0)
(2.0623e-008 -1.00871e-012 0)
(3.53671e-009 -1.03388e-012 0)
(6.06342e-010 -1.01382e-012 0)
(1.03716e-010 -1.03023e-012 0)
(1.74056e-011 -9.90114e-013 0)
(3.34925e-012 -1.00981e-012 0)
(5.48483e-013 -9.91573e-013 0)
(-5.83493e-015 -1.00142e-012 0)
(-2.45067e-013 -9.87197e-013 0)
(5.83493e-015 -9.83185e-013 0)
(2.62572e-013 -9.67869e-013 0)
(3.9094e-013 -9.64587e-013 0)
(4.49289e-013 -9.61669e-013 0)
(5.13474e-013 -9.87197e-013 0)
(9.56928e-013 -9.78809e-013 0)
(4.0261e-013 -9.87197e-013 0)
(2.50902e-013 -9.80268e-013 0)
(1.45873e-013 -9.82456e-013 0)
(-3.61766e-013 -9.82456e-013 0)
(-2.50902e-013 -9.39788e-013 0)
(8.53565e-013 9.02433e-013 0)
(1.22033e-012 9.11081e-013 0)
(1.80049e-013 8.90555e-013 0)
(1.24034e-012 8.84928e-013 0)
(3.60098e-013 8.96702e-013 0)
(1.11364e-012 8.59192e-013 0)
(1.51374e-012 8.90138e-013 0)
(1.92719e-012 8.66069e-013 0)
(2.00721e-012 9.11602e-013 0)
(1.66712e-012 8.8274e-013 0)
(1.68713e-012 9.05142e-013 0)
(1.51374e-012 8.81594e-013 0)
(9.53593e-013 8.93576e-013 0)
(4.73462e-013 8.5617e-013 0)
(3.40092e-013 8.46063e-013 0)
(2.46734e-013 8.06574e-013 0)
(6.26837e-013 7.96362e-013 0)
(5.80158e-013 7.78858e-013 0)
(9.00245e-013 7.53226e-013 0)
(1.37371e-012 7.56039e-013 0)
(1.02028e-012 7.59998e-013 0)
(1.32036e-012 7.57185e-013 0)
(1.22033e-012 7.799e-013 0)
(1.29369e-012 7.68647e-013 0)
(1.56042e-012 8.10012e-013 0)
(1.05362e-012 7.89173e-013 0)
(6.93522e-013 8.05115e-013 0)
(4.26783e-013 7.82713e-013 0)
(7.66875e-013 8.06782e-013 0)
(3.9344e-013 8.12096e-013 0)
(3.33424e-014 8.15847e-013 0)
(-5.60152e-013 8.03448e-013 0)
(2.13391e-013 8.04177e-013 0)
(4.20114e-013 8.25954e-013 0)
(6.46843e-013 8.20431e-013 0)
(-2.33397e-013 8.55337e-013 0)
(-7.33533e-014 8.18243e-013 0)
(-3.13419e-013 8.37832e-013 0)
(-2.86745e-013 8.18035e-013 0)
(4.26783e-013 8.31372e-013 0)
(-5.33478e-014 8.29392e-013 0)
(6.86853e-013 8.24495e-013 0)
(5.93495e-013 8.45751e-013 0)
(8.93576e-013 8.37624e-013 0)
(1.83383e-012 8.52315e-013 0)
(2.12058e-012 8.85449e-013 0)
(2.71407e-012 9.02225e-013 0)
(2.41399e-012 9.58281e-013 0)
(1.90719e-012 9.71931e-013 0)
(1.86051e-012 1.01705e-012 0)
(1.44706e-012 1.03497e-012 0)
(2.5607e-012 1.05258e-012 0)
(1.26034e-012 1.09113e-012 0)
(1.72047e-012 1.09176e-012 0)
(1.07363e-012 1.14594e-012 0)
(7.06859e-013 1.10384e-012 0)
(2.13391e-013 1.15907e-012 0)
(5.33478e-014 1.10593e-012 0)
(-1.40038e-013 1.13041e-012 0)
(-2.73408e-013 1.09894e-012 0)
(-4.66794e-014 1.09978e-012 0)
(-3.80103e-013 1.08738e-012 0)
(-2.86745e-013 1.09082e-012 0)
(-4.13446e-013 1.06602e-012 0)
(7.33533e-014 1.08092e-012 0)
(-6.00163e-014 1.0507e-012 0)
(-4.60125e-013 1.08123e-012 0)
(-4.66794e-014 1.0481e-012 0)
(3.86772e-013 1.08811e-012 0)
(5.13473e-013 1.06769e-012 0)
(3.46761e-013 1.0954e-012 0)
(6.40174e-013 1.088e-012 0)
(5.00136e-013 1.11124e-012 0)
(8.00218e-014 1.09353e-012 0)
(3.0675e-013 1.11009e-012 0)
(2.2006e-013 1.09582e-012 0)
(7.26864e-013 1.12333e-012 0)
(-4.66794e-014 1.11749e-012 0)
(7.60207e-013 1.12374e-012 0)
(-2.66739e-013 1.12739e-012 0)
(1.01361e-012 1.10957e-012 0)
(-2.40065e-013 1.12885e-012 0)
(-1.46707e-013 1.09228e-012 0)
(-3.53429e-013 1.10863e-012 0)
(-7.06859e-013 1.07123e-012 0)
(-4.66794e-014 1.06758e-012 0)
(-1.47373e-012 1.05706e-012 0)
(1.20033e-013 1.00204e-012 0)
(-4.00109e-013 1.0433e-012 0)
(-1.06029e-012 9.85581e-013 0)
(-1.66712e-013 9.74119e-013 0)
(-3.66766e-013 9.62553e-013 0)
(-8.00218e-014 9.63074e-013 0)
(2.2006e-013 9.54218e-013 0)
(5.93495e-013 9.54426e-013 0)
(1.53375e-013 9.60261e-013 0)
(3.33424e-013 9.50675e-013 0)
(4.4012e-013 9.72244e-013 0)
(1.14698e-012 9.62345e-013 0)
(7.93549e-013 1.00767e-012 0)
(4.86799e-013 9.94333e-013 0)
(-2.80076e-013 1.03612e-012 0)
(-6.26837e-013 1.00934e-012 0)
(3.00082e-013 1.02517e-012 0)
(-1.00027e-013 1.0307e-012 0)
(3.26756e-013 1.03018e-012 0)
(3.00082e-013 1.04268e-012 0)
(1.42705e-012 1.01246e-012 0)
(1.34703e-012 1.06894e-012 0)
(1.20033e-012 1.05706e-012 0)
(1.06029e-012 1.08602e-012 0)
(1.26701e-012 1.09582e-012 0)
(1.1003e-012 1.11666e-012 0)
(1.52708e-012 1.12614e-012 0)
(1.06696e-012 1.15094e-012 0)
(1.49374e-012 1.13687e-012 0)
(1.12697e-012 1.18928e-012 0)
(1.99388e-012 1.13979e-012 0)
(4.02109e-012 1.19418e-012 0)
(1.07229e-011 1.17355e-012 0)
(3.38625e-011 1.1799e-012 0)
(1.05769e-010 1.17282e-012 0)
(3.28096e-010 1.15938e-012 0)
(9.97478e-010 1.1649e-012 0)
(2.98425e-009 1.14698e-012 0)
(8.78127e-009 1.15094e-012 0)
(2.54174e-008 1.14083e-012 0)
(7.23365e-008 1.12426e-012 0)
(2.02334e-007 1.13208e-012 0)
(5.55996e-007 1.11707e-012 0)
(1.50022e-006 1.11061e-012 0)
(3.97275e-006 1.11072e-012 0)
(1.0319e-005 1.09238e-012 0)
(2.6275e-005 1.0704e-012 0)
(6.55424e-005 1.06237e-012 0)
(0.00016006 1.04226e-012 0)
(0.000382383 1.03778e-012 0)
(0.000892949 9.73077e-013 0)
(0.00203651 9.61095e-013 0)
(0.00453172 9.13374e-013 0)
(0.00982894 8.78781e-013 0)
(0.0207548 8.46898e-013 0)
(0.0426143 7.88345e-013 0)
(0.0849605 7.55211e-013 0)
(0.164228 7.10732e-013 0)
(0.307286 6.75311e-013 0)
(0.555593 6.22959e-013 0)
(0.969012 5.61071e-013 0)
(1.62752 5.26286e-013 0)
(2.62841 4.7854e-013 0)
(4.07674 4.33907e-013 0)
(6.06841 4.0218e-013 0)
(8.66769 3.47049e-013 0)
(11.8846 3.10831e-013 0)
(15.6677 2.81486e-013 0)
(19.9279 2.62187e-013 0)
(24.572 2.22075e-013 0)
(29.5206 1.88557e-013 0)
(34.7117 1.61199e-013 0)
(40.098 1.53233e-013 0)
(45.6438 1.17825e-013 0)
(51.322 7.46413e-014 0)
(57.1114 4.8264e-014 0)
(62.9956 2.53447e-014 0)
(68.9612 -4.62589e-015 0)
(74.9971 -2.52007e-014 0)
(81.0941 -6.73306e-014 0)
(87.2441 -1.01544e-013 0)
(93.44 -1.51054e-013 0)
(99.6753 -1.84712e-013 0)
(105.944 -2.03065e-013 0)
(112.241 -2.28473e-013 0)
(118.562 -2.60261e-013 0)
(124.9 -3.03229e-013 0)
(131.252 -3.44683e-013 0)
(137.612 -3.81749e-013 0)
(143.978 -4.13426e-013 0)
(150.341 -4.43224e-013 0)
(156.706 -4.82486e-013 0)
(163.051 -5.0877e-013 0)
(169.4 -5.42346e-013 0)
(175.712 -5.71958e-013 0)
(182.014 -5.94423e-013 0)
(188.29 -6.13748e-013 0)
(194.517 -6.31131e-013 0)
(200.719 -6.46748e-013 0)
(206.873 -6.59338e-013 0)
(212.959 -6.72337e-013 0)
(218.987 -6.95358e-013 0)
(224.944 -7.22282e-013 0)
(230.804 -7.43063e-013 0)
(236.556 -7.47722e-013 0)
(242.194 -7.49861e-013 0)
(247.691 -7.46659e-013 0)
(253.015 -7.45259e-013 0)
(258.144 -7.52153e-013 0)
(263.052 -7.5414e-013 0)
(267.702 -7.4885e-013 0)
(272.052 -7.4448e-013 0)
(276.059 -7.39749e-013 0)
(279.688 -7.37198e-013 0)
(282.906 -7.34451e-013 0)
(285.679 -7.31077e-013 0)
(287.984 -7.34452e-013 0)
(289.817 -7.35138e-013 0)
(291.207 -7.27775e-013 0)
(292.181 -7.23433e-013 0)
(292.827 -7.21046e-013 0)
(293.198 -7.1943e-013 0)
(293.333 -7.20713e-013 0)
(293.357 -7.24073e-013 0)
(293.347 -7.27044e-013 0)
(293.301 -7.26515e-013 0)
(293.212 -7.24539e-013 0)
(293.102 -7.15082e-013 0)
(292.987 -7.04898e-013 0)
(292.906 -7.01391e-013 0)
(292.878 -6.98184e-013 0)
(292.868 -6.96594e-013 0)
(292.866 -6.94912e-013 0)
(292.886 -6.91417e-013 0)
(292.923 -6.87956e-013 0)
(292.947 -6.89771e-013 0)
(292.96 -6.91527e-013 0)
(292.971 -6.89888e-013 0)
(292.976 -6.88431e-013 0)
(292.989 -6.88274e-013 0)
(293.019 -6.88948e-013 0)
(293.073 -6.93878e-013 0)
(293.19 -7.04142e-013 0)
(293.454 -7.20766e-013 0)
(293.559 -7.47092e-013 0)
(293.272 -7.78891e-013 0)
(292.947 -8.15384e-013 0)
(292.825 -8.55755e-013 0)
(292.862 -9.04511e-013 0)
(292.941 -9.57163e-013 0)
(293.011 -1.01131e-012 0)
(293.055 -1.06606e-012 0)
(293.075 -1.11544e-012 0)
(293.083 -1.16474e-012 0)
(293.084 -1.21323e-012 0)
(293.081 -1.26704e-012 0)
(293.075 -1.31582e-012 0)
(293.061 -1.36552e-012 0)
(293.059 -1.41416e-012 0)
(293.068 -1.46012e-012 0)
(293.069 -1.50561e-012 0)
(293.068 -1.54696e-012 0)
(293.07 -1.58521e-012 0)
(293.076 -1.61673e-012 0)
(293.082 -1.64352e-012 0)
(293.083 -1.65593e-012 0)
(293.082 -1.66417e-012 0)
(293.079 -1.66715e-012 0)
(293.069 -1.66893e-012 0)
(293.041 -1.6738e-012 0)
(292.972 -1.67805e-012 0)
(292.827 -1.67873e-012 0)
(292.538 -1.68041e-012 0)
(291.984 -1.69115e-012 0)
(290.918 -1.70931e-012 0)
(288.809 -1.74475e-012 0)
(284.642 -1.76502e-012 0)
(276.236 -1.7106e-012 0)
(256.394 -1.69273e-012 0)
(198.433 -1.61303e-012 0)
(95.2059 -1.21478e-012 0)
(25.3706 -9.61953e-013 0)
(5.1807 -9.05229e-013 0)
(0.936381 -9.11278e-013 0)
(0.162016 -9.22323e-013 0)
(0.0277861 -9.19365e-013 0)
(0.00475838 -9.56563e-013 0)
(0.000814773 -9.4182e-013 0)
(0.000139533 -9.94699e-013 0)
(2.39006e-005 -9.53594e-013 0)
(4.09484e-006 -1.01611e-012 0)
(7.01728e-007 -9.81623e-013 0)
(1.20283e-007 -1.01398e-012 0)
(2.06222e-008 -9.97877e-013 0)
(3.53643e-009 -1.03414e-012 0)
(6.06659e-010 -1.01028e-012 0)
(1.04515e-010 -1.02945e-012 0)
(1.79049e-011 -9.97721e-013 0)
(3.2809e-012 -1.01179e-012 0)
(1.0803e-012 -9.97981e-013 0)
(6.66849e-013 -1.00033e-012 0)
(9.93605e-013 -9.78549e-013 0)
(5.60153e-013 -9.67452e-013 0)
(3.00082e-013 -9.65368e-013 0)
(4.20115e-013 -9.63909e-013 0)
(6.66849e-014 -9.63232e-013 0)
(-4.33452e-013 -9.77976e-013 0)
(4.06778e-013 -9.823e-013 0)
(2.40066e-013 -9.99909e-013 0)
(6.66849e-013 -9.88083e-013 0)
(4.66794e-014 -9.98867e-013 0)
(9.33589e-013 -9.80216e-013 0)
(4.4012e-013 -9.58127e-013 0)
(8.00219e-013 -2.27668e-025 0)
(5.33479e-013 -4.37931e-038 0)
(5.33479e-013 -6.87364e-051 0)
(8.00219e-013 -8.48909e-064 0)
(6.00164e-013 -8.78522e-077 0)
(8.00219e-013 -7.7995e-090 0)
(6.00164e-013 -5.89932e-103 0)
(6.00164e-013 -4.04011e-116 0)
(6.66849e-013 -2.52674e-129 0)
(4.66794e-013 -1.46439e-142 0)
(4.66794e-013 -7.82175e-156 0)
(6.66849e-013 -3.77508e-169 0)
(5.33479e-013 -1.65626e-182 0)
(6.00164e-013 -6.82285e-196 0)
(8.00219e-013 -2.6323e-209 0)
(4.00109e-013 -9.29586e-223 0)
(7.33534e-013 -3.03601e-236 0)
(4.00109e-013 -9.49732e-250 0)
(8.66904e-013 -2.91705e-263 0)
(2.6674e-013 -8.95004e-277 0)
(8.00219e-013 -2.61549e-290 0)
(2.00055e-013 -7.23518e-304 0)
(5.33479e-013 -1.86717e-317 0)
(6.66849e-013 0 0)
(2.00055e-013 0 0)
(7.33534e-013 0 0)
(6.00164e-013 0 0)
(2.6674e-013 0 0)
(5.33479e-013 0 0)
(4.00109e-013 0 0)
(5.33479e-013 0 0)
(5.33479e-013 0 0)
(2.6674e-013 0 0)
(4.66794e-013 0 0)
(6.00164e-013 0 0)
(3.33424e-013 0 0)
(4.66794e-013 0 0)
(4.00109e-013 0 0)
(3.33424e-013 0 0)
(6.66849e-014 0 0)
(2.6674e-013 0 0)
(1.81669e-025 0 0)
(2.6674e-013 0 0)
(-6.66849e-014 0 0)
(3.33424e-013 0 0)
(-6.66849e-014 0 0)
(2.00055e-013 0 0)
(-1.3337e-013 0 0)
(6.66849e-014 0 0)
(1.3337e-013 0 0)
(-2.00055e-013 0 0)
(2.6674e-013 0 0)
(-2.00055e-013 0 0)
(2.00055e-013 0 0)
(-2.6674e-013 0 0)
(2.6674e-013 0 0)
(-3.33424e-013 0 0)
(6.66849e-014 0 0)
(-1.3337e-013 0 0)
(-2.00055e-013 0 0)
(-6.66849e-014 0 0)
(-3.33424e-013 0 0)
(6.66849e-014 0 0)
(-5.33479e-013 0 0)
(-6.66849e-014 0 0)
(-4.66794e-013 0 0)
(-1.3337e-013 0 0)
(-4.00109e-013 0 0)
(-2.00055e-013 0 0)
(-2.00055e-013 0 0)
(-2.00055e-013 0 0)
(-4.66794e-013 0 0)
(-6.66849e-014 0 0)
(-4.00109e-013 0 0)
(-6.66849e-014 0 0)
(-4.00109e-013 0 0)
(-2.6674e-013 0 0)
(-2.6674e-013 0 0)
(-1.3337e-013 0 0)
(-4.00109e-013 0 0)
(2.37097e-026 6.59029e-314 0)
(-4.00109e-013 2.84057e-299 0)
(2.15606e-025 1.58138e-284 0)
(-4.66794e-013 1.09426e-269 0)
(6.72867e-026 8.14971e-255 0)
(-2.6674e-013 6.86461e-240 0)
(-1.51108e-025 5.28755e-225 0)
(-2.6674e-013 3.31523e-210 0)
(-1.3337e-013 4.14273e-195 0)
(-3.33424e-013 2.21514e-180 0)
(-6.66849e-014 1.43435e-165 0)
(-2.00055e-013 5.35353e-151 0)
(-2.6674e-013 2.57585e-136 0)
(-3.33424e-013 1.52691e-121 0)
(6.66849e-014 1.11652e-106 0)
(-2.6674e-013 2.14313e-091 0)
(1.3337e-013 1.84696e-076 0)
(-1.3337e-013 1.61145e-061 0)
(2.00055e-013 2.47452e-046 0)
(2.00055e-013 4.74978e-031 0)
(1.41983e-012 -1.95713e-013 0)
(1.45873e-012 -2.42514e-013 0)
(1.23506e-012 -2.1334e-013 0)
(1.42956e-012 -2.13947e-013 0)
(1.58516e-012 -2.52239e-013 0)
(1.44901e-012 -2.23064e-013 0)
(1.47818e-012 -2.53455e-013 0)
(1.71158e-012 -2.58925e-013 0)
(1.49763e-012 -2.58317e-013 0)
(1.63378e-012 -2.86884e-013 0)
(1.80883e-012 -2.83845e-013 0)
(1.28368e-012 -2.82629e-013 0)
(1.25451e-012 -3.06334e-013 0)
(1.17671e-012 -2.96609e-013 0)
(8.07165e-013 -3.00256e-013 0)
(7.19641e-013 -3.1302e-013 0)
(8.26615e-013 -3.14843e-013 0)
(4.47345e-013 -3.14843e-013 0)
(8.3634e-013 -3.1302e-013 0)
(4.76519e-013 -3.02687e-013 0)
(3.59821e-013 -2.94178e-013 0)
(8.5579e-013 -3.05726e-013 0)
(5.93218e-013 -2.81414e-013 0)
(8.5579e-013 -3.00256e-013 0)
(3.69545e-013 -2.73512e-013 0)
(7.58541e-013 -3.06942e-013 0)
(8.1689e-013 -2.82629e-013 0)
(1.26423e-012 -2.96001e-013 0)
(1.30313e-012 -2.74728e-013 0)
(1.28368e-012 -2.95393e-013 0)
(9.23864e-013 -2.90531e-013 0)
(1.13781e-012 -2.91746e-013 0)
(1.12809e-012 -3.14235e-013 0)
(1.49763e-012 -3.39763e-013 0)
(9.23864e-013 -3.20921e-013 0)
(9.72488e-013 -3.26391e-013 0)
(1.10864e-012 -3.08157e-013 0)
(1.06001e-012 -3.08765e-013 0)
(1.20589e-012 -3.00863e-013 0)
(1.20589e-012 -3.10588e-013 0)
(1.48791e-012 -2.91139e-013 0)
(1.41011e-012 -3.05726e-013 0)
(1.43928e-012 -3.17274e-013 0)
(1.48791e-012 -3.03295e-013 0)
(1.19616e-012 -3.00863e-013 0)
(1.15726e-012 -3.05726e-013 0)
(1.12809e-012 -3.0451e-013 0)
(1.01139e-012 -3.24568e-013 0)
(1.18644e-012 -3.13627e-013 0)
(8.26615e-013 -3.26999e-013 0)
(1.05029e-012 -3.13627e-013 0)
(1.55598e-013 -2.96609e-013 0)
(1.00166e-012 -2.96609e-013 0)
(-3.11196e-013 -2.88707e-013 0)
(5.25144e-013 -3.11804e-013 0)
(-7.7799e-013 -2.80198e-013 0)
(3.50096e-013 -2.80806e-013 0)
(-1.94498e-013 -2.96001e-013 0)
(4.95969e-013 -2.86884e-013 0)
(-6.32117e-013 -2.99648e-013 0)
(1.94498e-014 -3.05118e-013 0)
(-2.52847e-013 -2.86276e-013 0)
(9.72488e-015 -2.91746e-013 0)
(-3.88995e-013 -3.19098e-013 0)
(1.06974e-013 -3.11196e-013 0)
(9.72488e-015 -3.20921e-013 0)
(-1.75048e-013 -3.14235e-013 0)
(-1.06974e-013 -3.27607e-013 0)
(-7.297e-027 -3.15451e-013 0)
(-3.01471e-013 -3.25176e-013 0)
(1.26423e-013 -3.16059e-013 0)
(-4.86244e-014 -3.37332e-013 0)
(3.50096e-013 -3.20313e-013 0)
(-9.72488e-014 -3.44018e-013 0)
(3.59821e-013 -3.49488e-013 0)
(-1.45873e-013 -3.34901e-013 0)
(-1.16699e-013 -3.47057e-013 0)
(3.50096e-013 -3.42194e-013 0)
(-1.06974e-013 -3.30646e-013 0)
(3.40371e-013 -3.41586e-013 0)
(-1.75048e-013 -3.38547e-013 0)
(1.65323e-013 -3.4341e-013 0)
(-3.40371e-013 -3.38547e-013 0)
(3.88995e-014 -3.33685e-013 0)
(-8.26615e-013 -3.33685e-013 0)
(5.54318e-013 -3.14843e-013 0)
(-4.76519e-013 -3.52527e-013 0)
(2.72297e-013 -3.1849e-013 0)
(-3.69545e-013 -3.37332e-013 0)
(1.75048e-013 -3.36724e-013 0)
(-4.12101e-027 -3.39155e-013 0)
(2.36083e-027 -3.1849e-013 0)
(-7.7799e-014 -3.23352e-013 0)
(3.88995e-014 -3.17274e-013 0)
(-9.72488e-014 -3.11196e-013 0)
(3.40371e-013 -3.23352e-013 0)
(3.9872e-013 -3.42194e-013 0)
(3.01471e-013 -3.46449e-013 0)
(5.73768e-013 -3.61036e-013 0)
(2.82022e-013 -3.60428e-013 0)
(-4.86244e-014 -3.57997e-013 0)
(-1.26423e-013 -3.56174e-013 0)
(2.62572e-013 -3.65291e-013 0)
(-5.83493e-014 -3.40371e-013 0)
(-1.94498e-013 -3.99936e-013 0)
(-2.33397e-013 -3.45841e-013 0)
(-9.72488e-015 -3.71369e-013 0)
(-1.55598e-013 -3.59213e-013 0)
(9.72488e-014 -3.67722e-013 0)
(-6.71017e-013 -3.6286e-013 0)
(-1.94498e-014 -3.3794e-013 0)
(-3.7927e-013 -3.61644e-013 0)
(4.3762e-013 -3.39155e-013 0)
(-2.33397e-013 -3.40979e-013 0)
(-1.26423e-013 -3.39155e-013 0)
(-1.94498e-014 -3.32469e-013 0)
(-6.80742e-014 -3.45841e-013 0)
(2.72117e-028 -3.27607e-013 0)
(1.94498e-014 -3.2396e-013 0)
(-3.20921e-013 -3.17274e-013 0)
(-3.88995e-014 -3.20921e-013 0)
(-7.7799e-014 -3.16059e-013 0)
(2.33397e-013 -3.14843e-013 0)
(2.91746e-014 -3.25784e-013 0)
(7.7799e-014 -3.26391e-013 0)
(2.52847e-013 -3.42194e-013 0)
(-3.20921e-013 -3.14843e-013 0)
(6.12667e-013 -3.2943e-013 0)
(-1.65323e-013 -3.14235e-013 0)
(3.7927e-013 -3.6286e-013 0)
(1.84773e-013 -3.30646e-013 0)
(-9.72488e-014 -3.40979e-013 0)
(-2.62572e-013 -3.39155e-013 0)
(-1.58615e-026 -3.36116e-013 0)
(-6.12667e-013 -3.36116e-013 0)
(1.55598e-013 -3.54958e-013 0)
(-2.23672e-013 -3.33685e-013 0)
(2.82022e-013 -3.2943e-013 0)
(-1.06974e-013 -3.26391e-013 0)
(-4.86244e-014 -3.53743e-013 0)
(2.23672e-013 -3.47664e-013 0)
(-1.55598e-013 -3.4341e-013 0)
(-1.94498e-014 -3.36724e-013 0)
(9.72488e-015 -3.35508e-013 0)
(-3.40371e-013 -3.33685e-013 0)
(-9.72488e-015 -3.17274e-013 0)
(-2.91746e-013 -3.4341e-013 0)
(4.86244e-014 -3.16666e-013 0)
(-3.50096e-013 -3.30038e-013 0)
(4.86244e-014 -3.2396e-013 0)
(6.77963e-013 -2.05091e-013 0)
(-4.44566e-014 -2.37565e-013 0)
(7.7799e-013 -2.2784e-013 0)
(5.55707e-013 -2.40343e-013 0)
(6.44621e-013 -2.47811e-013 0)
(8.00219e-013 -2.48766e-013 0)
(5.77936e-013 -2.61964e-013 0)
(8.11333e-013 -2.57188e-013 0)
(5.77936e-013 -2.64222e-013 0)
(3.55653e-013 -2.85842e-013 0)
(8.11333e-013 -2.83237e-013 0)
(7.7799e-013 -2.85929e-013 0)
(8.78018e-013 -3.01298e-013 0)
(9.44703e-013 -2.86016e-013 0)
(9.1136e-013 -2.93136e-013 0)
(5.22365e-013 -2.99561e-013 0)
(9.89159e-013 -3.09633e-013 0)
(1.00027e-012 -2.98085e-013 0)
(1.16699e-012 -2.98259e-013 0)
(1.18921e-012 -2.92181e-013 0)
(9.00246e-013 -2.83932e-013 0)
(7.66876e-013 -2.79851e-013 0)
(6.44621e-013 -2.89142e-013 0)
(6.66849e-013 -2.80893e-013 0)
(6.66849e-013 -2.87405e-013 0)
(5.55707e-013 -2.86797e-013 0)
(4.89023e-013 -2.88186e-013 0)
(7.55762e-013 -2.92181e-013 0)
(6.44621e-013 -2.98172e-013 0)
(9.55817e-013 -3.01732e-013 0)
(6.77963e-013 -3.02687e-013 0)
(9.66931e-013 -3.08504e-013 0)
(9.44703e-013 -2.98606e-013 0)
(1.08919e-012 -3.25784e-013 0)
(7.7799e-013 -3.05205e-013 0)
(8.44675e-013 -3.26825e-013 0)
(1.16699e-012 -3.09894e-013 0)
(1.30036e-012 -3.15798e-013 0)
(1.58932e-012 -3.02426e-013 0)
(1.13364e-012 -3.15364e-013 0)
(1.54487e-012 -3.00603e-013 0)
(1.82272e-012 -3.10154e-013 0)
(1.46707e-012 -2.99561e-013 0)
(1.77826e-012 -2.9904e-013 0)
(1.43373e-012 -3.059e-013 0)
(1.28924e-012 -2.9713e-013 0)
(1.35593e-012 -2.90097e-013 0)
(1.08919e-012 -2.97043e-013 0)
(9.89159e-013 -2.91312e-013 0)
(1.21144e-012 -2.99908e-013 0)
(1.15587e-012 -2.93917e-013 0)
(1.22256e-012 -2.85929e-013 0)
(1.00027e-012 -2.9904e-013 0)
(7.33534e-013 -2.6865e-013 0)
(5.11251e-013 -2.85842e-013 0)
(7.7799e-014 -2.76291e-013 0)
(-2.33397e-013 -2.71342e-013 0)
(-5.55707e-013 -2.8289e-013 0)
(-6.55735e-013 -2.81153e-013 0)
(-5.55707e-013 -2.99214e-013 0)
(-6.11278e-013 -2.81935e-013 0)
(-5.77936e-013 -2.98432e-013 0)
(-9.55817e-013 -3.01124e-013 0)
(-6.89077e-013 -3.12846e-013 0)
(-8.44675e-013 -3.03729e-013 0)
(-5.22365e-013 -3.28562e-013 0)
(-6.77963e-013 -3.16753e-013 0)
(-7.2242e-013 -3.25002e-013 0)
(-5.11251e-013 -3.28823e-013 0)
(-5.55707e-014 -3.45146e-013 0)
(-3.55653e-013 -3.18664e-013 0)
(-3.44539e-013 -3.33511e-013 0)
(3.33424e-014 -3.39503e-013 0)
(-3.11196e-013 -3.26304e-013 0)
(1.66712e-013 -3.46709e-013 0)
(-1.66712e-013 -3.27086e-013 0)
(2.55625e-013 -3.32817e-013 0)
(2.77854e-013 -3.34206e-013 0)
(4.11224e-013 -3.2943e-013 0)
(6.66849e-014 -3.34032e-013 0)
(-1.00027e-013 -3.28215e-013 0)
(2.33397e-013 -3.27954e-013 0)
(8.89132e-014 -3.30646e-013 0)
(5.55707e-014 -3.22831e-013 0)
(5.55707e-014 -3.33598e-013 0)
(-1.00027e-013 -3.06073e-013 0)
(3.33424e-014 -3.33772e-013 0)
(3.33424e-014 -3.14148e-013 0)
(8.89132e-014 -3.30385e-013 0)
(2.22283e-014 -3.07115e-013 0)
(-8.89132e-014 -3.24134e-013 0)
(2.22283e-014 -3.17014e-013 0)
(-3.44539e-013 -3.2014e-013 0)
(-4.66794e-013 -3.18577e-013 0)
(-2.6674e-013 -3.31948e-013 0)
(-3.00082e-013 -3.17361e-013 0)
(-2.88968e-013 -3.39589e-013 0)
(-1.66712e-013 -3.34814e-013 0)
(-2.00055e-013 -3.4697e-013 0)
(5.55707e-014 -3.44191e-013 0)
(8.89132e-014 -3.49054e-013 0)
(-2.33397e-013 -3.40544e-013 0)
(1.66712e-013 -3.57303e-013 0)
(-3.33424e-014 -3.31601e-013 0)
(-1.22256e-013 -3.64596e-013 0)
(-1.55598e-013 -3.31948e-013 0)
(-6.66849e-014 -3.61036e-013 0)
(2.22283e-014 -3.40805e-013 0)
(-2.00055e-013 -3.41239e-013 0)
(6.66849e-014 -3.60602e-013 0)
(2.44511e-013 -3.32556e-013 0)
(6.00164e-013 -3.56347e-013 0)
(3.66767e-013 -3.19792e-013 0)
(6.22392e-013 -3.47838e-013 0)
(3.33424e-013 -3.29778e-013 0)
(4.11224e-013 -3.09286e-013 0)
(4.33452e-013 -3.3438e-013 0)
(5.11251e-013 -3.14409e-013 0)
(1.77826e-013 -3.10675e-013 0)
(5.55707e-014 -3.17535e-013 0)
(4.44566e-014 -3.03729e-013 0)
(-1.77826e-013 -3.15624e-013 0)
(-3.00082e-013 -3.12238e-013 0)
(6.66849e-014 -3.12672e-013 0)
(-3.44539e-013 -3.20574e-013 0)
(-8.89132e-014 -3.17101e-013 0)
(-7.7799e-014 -3.15451e-013 0)
(-1.22256e-013 -3.30385e-013 0)
(-2.88968e-013 -3.12933e-013 0)
(-3.55653e-013 -3.34032e-013 0)
(-1.55598e-013 -3.23873e-013 0)
(-3.33424e-014 -3.3655e-013 0)
(1.11141e-013 -3.20921e-013 0)
(-1.11141e-013 -3.26912e-013 0)
(-1.44484e-013 -3.37679e-013 0)
(-3.77881e-013 -3.25436e-013 0)
(-2.77854e-013 -3.34466e-013 0)
(-4.00109e-013 -3.30212e-013 0)
(-2.22283e-014 -3.52874e-013 0)
(-3.55653e-013 -3.33164e-013 0)
(-1.45984e-027 -3.51572e-013 0)
(-7.7799e-014 -3.42194e-013 0)
(3.33424e-013 -3.40892e-013 0)
(3.11196e-013 -3.53829e-013 0)
(2.00055e-013 -3.34553e-013 0)
(-2.22283e-014 -3.1328e-013 0)
(-2.00055e-013 -3.53308e-013 0)
(-2.00055e-013 -3.13454e-013 0)
(-3.11196e-013 -3.33859e-013 0)
(5.55707e-014 -3.3082e-013 0)
)
;

boundaryField
{
    inlet
    {
        type            zeroGradient;
    }
    outlet
    {
        type            zeroGradient;
    }
    bottom
    {
        type            symmetryPlane;
    }
    top
    {