/*--------------------------------*- C++ -*----------------------------------*\
| =========                 |                                                 |
| \\      /  F ield         | OpenFOAM: The Open Source CFD Toolbox           |
|  \\    /   O peration     | Version:  5.x                                   |
|   \\  /    A nd           | Web:      www.OpenFOAM.org                      |
|    \\/     M anipulation  |                                                 |
\*---------------------------------------------------------------------------*/
/*   Windows 32 and 64 bit porting by blueCAPE: http://www.bluecape.com.pt   *\
|  Based on Windows porting (2.0.x v4) by Symscape: http://www.symscape.com   |
\*---------------------------------------------------------------------------*/
FoamFile
{
    version     2.0;
    format      ascii;
    class       volScalarField;
    location    "0.002";
    object      mag(U);
}
// * * * * * * * * * * * * * * * * * * * * * * * * * * * * * * * * * * * * * //

dimensions      [0 1 -1 0 0 0 0];

internalField   nonuniform List<scalar> 
100
(
0.667456
7.27284
67.3478
228.975
168.125
32.1949
0.667456
7.27284
67.3477
228.976
168.081
32.1289
0.667456
7.27284
67.3476
228.979
168.023
32.052
0.667456
7.27284
67.3476
228.981
167.969
31.9866
0.667456
7.27284
67.3475
228.982
167.926
32.1795
0.667456
7.27284
67.3474
228.987
167.807
37.7925
0.667456
7.27284
67.3472
228.991
167.698
37.7599
0.667456
7.27285
67.3471
228.994
167.634
37.7715
0.667456
7.27285
67.3471
228.994
167.624
37.7739
0.667456
7.27285
67.3471
228.994
167.622
37.7743
10.2055
4.36833
10.4971
4.3349
10.671
4.32765
10.6995
4.32957
10.7037
4.32995
0.0503296
0.00962261
0.000305947
0.173451
0.0257772
0.000888489
0.328571
0.0507531
0.00160109
0.463362
0.0763492
0.00230039
0.642046
0.103138
0.00289527
1.46203
0.139084
0.00460746
1.37185
0.159646
0.00530245
1.36257
0.173864
0.00565475
1.36329
0.175427
0.00568724
1.36346
0.175633
0.00569142
)
;

boundaryField
{
    inlet
    {
        type            calculated;
        value           nonuniform List<scalar> 10(0.667456 0.667456 0.667456 0.667456 0.667456 0.667456 0.667456 0.667456 0.667456 0.667456);
    }
    outlet
    {
        type            calculated;
        value           nonuniform List<scalar> 10(0.00460746 0.00530245 0.00565475 0.00568724 0.00569142 0.000305947 0.000888489 0.00160109 0.00230039 0.00289527);
    }
    bottom
    {
        type            symmetryPlane;
    }
    top
    {
        type            symmetryPlane;
    }
    obstacle
    {
        type            calculated;
        value           nonuniform List<scalar> 
12
(
32.1949
32.1289
32.052
31.9866
32.1795
0.0503296
0.173451
0.328571
0.463362
0.642046
10.2055
4.36833
)
;
    }
    defaultFaces
    {
        type            empty;
    }
}


// ************************************************************************* //
