/*--------------------------------*- C++ -*----------------------------------*\
| =========                 |                                                 |
| \\      /  F ield         | OpenFOAM: The Open Source CFD Toolbox           |
|  \\    /   O peration     | Version:  5.x                                   |
|   \\  /    A nd           | Web:      www.OpenFOAM.org                      |
|    \\/     M anipulation  |                                                 |
\*---------------------------------------------------------------------------*/
/*   Windows 32 and 64 bit porting by blueCAPE: http://www.bluecape.com.pt   *\
|  Based on Windows porting (2.0.x v4) by Symscape: http://www.symscape.com   |
\*---------------------------------------------------------------------------*/
FoamFile
{
    version     2.0;
    format      ascii;
    class       volScalarField;
    location    "0.002";
    object      p;
}
// * * * * * * * * * * * * * * * * * * * * * * * * * * * * * * * * * * * * * //

dimensions      [1 -1 -2 0 0 0 0];

internalField   nonuniform List<scalar> 
100
(
99846.6
95758.1
77234.1
39244
16169.9
11224.8
99846.6
95758.1
77234
39244.5
16166.6
11249.1
99846.6
95758.1
77234
39245
16162.6
11278.4
99846.6
95758.1
77234
39245.5
16158.9
11304.8
99846.6
95758.1
77234
39245.8
16155.9
11325.1
99846.6
95758.1
77234
39246.6
16148.3
11380.7
99846.6
95758.1
77234
39247.9
16139.5
11441.5
99846.6
95758.1
77234
39248.8
16134.2
11482.4
99846.6
95758.1
77234
39249
16133.2
11490.8
99846.6
95758.1
77234
39249
16133
11492.1
10407.1
10176.5
10411.2
10180.4
10414.6
10182.9
10415.5
10183.5
10415.6
10183.6
10003.7
10000.3
10000
10007.8
10000.8
10000
10013.7
10001.5
10000.1
10019.9
10002.2
10000.1
10024.8
10002.9
10000.1
10039.6
10004.8
10000.2
10049.6
10005.8
10000.2
10054.7
10006.3
10000.2
10055.4
10006.4
10000.2
10055.5
10006.4
10000.2
)
;

boundaryField
{
    inlet
    {
        type            zeroGradient;
    }
    outlet
    {
        type            zeroGradient;
    }
    bottom
    {
        type            symmetryPlane;
    }
    top
    {
        type            symmetryPlane;
    }
    obstacle
    {
        type            zeroGradient;
    }
    defaultFaces
    {
        type            empty;
    }
}


// ************************************************************************* //
