/*--------------------------------*- C++ -*----------------------------------*\
| =========                 |                                                 |
| \\      /  F ield         | OpenFOAM: The Open Source CFD Toolbox           |
|  \\    /   O peration     | Version:  5.x                                   |
|   \\  /    A nd           | Web:      www.OpenFOAM.org                      |
|    \\/     M anipulation  |                                                 |
\*---------------------------------------------------------------------------*/
/*   Windows 32 and 64 bit porting by blueCAPE: http://www.bluecape.com.pt   *\
|  Based on Windows porting (2.0.x v4) by Symscape: http://www.symscape.com   |
\*---------------------------------------------------------------------------*/
FoamFile
{
    version     2.0;
    format      ascii;
    class       surfaceScalarField;
    location    "0.002";
    object      phi;
}
// * * * * * * * * * * * * * * * * * * * * * * * * * * * * * * * * * * * * * //

dimensions      [1 0 -1 0 0 0 0];

internalField   nonuniform List<scalar> 
174
(
0.991587
1.16083e-007
10.4598
-6.44349e-006
25.0647
0.000102165
8.07172
-0.00311202
2.13119
0.0158177
-0.116836
0.663115
2.16719e-007
6.99489
-1.01771e-005
16.7618
0.000202489
5.39652
-0.00520872
1.42548
0.0310876
-0.218949
0.443452
2.6937e-007
4.67776
-1.19378e-005
11.2093
0.00026931
3.60767
-0.00642798
0.953428
0.0448352
-0.30581
0.296554
2.88779e-007
3.1282
-1.25968e-005
7.49617
0.0003039
2.41184
-0.00705155
0.637695
0.0560518
-0.374487
0.198318
2.92692e-007
2.09195
-1.27467e-005
5.013
0.000320151
1.61251
-0.00735769
0.427221
0.0639518
-0.426272
0.841737
2.0249e-007
8.87905
-1.05721e-005
21.2774
0.000196309
6.83813
-0.00541695
1.89115
0.0365282
-0.250149
0.30237
1.49684
7.77064e-008
15.7894
-4.97412e-006
37.8374
6.7767e-005
12.1523
-0.00244457
3.3707
0.0124102
-0.0888208
0.546676
2.66181
1.44642e-008
28.0779
-1.23523e-006
67.2855
1.15863e-005
21.6021
-0.00059375
6.00342
0.00272435
-0.0206094
0.981753
4.73344
8.61824e-010
49.9304
-1.29631e-007
119.652
3.83261e-007
38.4122
-5.98915e-005
10.6792
0.000220294
-0.00183024
1.74867
8.41737
88.7902
212.775
68.307
18.9916
3.11037
0.142869
-0.00348313
-0.00151963
0.0592793
0.257791
-0.00189364
-0.00104971
0.104059
0.462819
-0.00048619
-0.000252697
0.1843
0.824438
-4.91668e-005
-2.52722e-005
0.327849
1.46646
0.583049
0.000243294
-0.00458923
0.000127135
-0.00136536
-0.000195991
0.000372696
-0.0101831
0.000199721
-0.003219
-0.000385261
0.000477863
-0.0161663
0.000261066
-0.00536164
-0.000517373
0.000487313
-0.0215818
0.000269598
-0.00739001
-0.000584914
0.000445488
-0.0259359
0.000233816
-0.00904063
-0.000612649
0.0190381
-0.0124353
0.00171165
-0.00400759
-0.00036179
0.0339345
-0.00305061
0.0037357
-0.000813724
-0.000129351
0.060578
-0.000598847
0.00723864
-0.000149915
-2.5396e-005
0.10788
-3.6379e-005
0.0129848
-7.83543e-006
-1.77409e-006
0.191883
0.0231165
)
;

boundaryField
{
    inlet
    {
        type            calculated;
        value           nonuniform List<scalar> 10(-0.106359 -0.189136 -0.336337 -0.5981 -1.06359 -0.125294 -0.083789 -0.0560331 -0.0374716 -0.0250587);
    }
    outlet
    {
        type            calculated;
        value           nonuniform List<scalar> 10(8.63402e-005 0.000182193 0.000346905 0.000620514 0.00110425 4.61344e-006 8.04943e-006 1.14249e-005 1.24796e-005 1.11606e-005);
    }
    bottom
    {
        type            symmetryPlane;
        value           uniform 0;
    }
    top
    {
        type            symmetryPlane;
        value           uniform 0;
    }
    obstacle
    {
        type            calculated;
        value           nonuniform List<scalar> 
12
(
0.821447
0.548714
0.36634
0.244602
0.164501
-0.000187911
-0.000292456
-0.000379354
-0.000389733
-0.000368674
0.00340829
0.00112437
)
;
    }
    defaultFaces
    {
        type            empty;
        value           nonuniform 0();
    }
}


// ************************************************************************* //
