/*--------------------------------*- C++ -*----------------------------------*\
| =========                 |                                                 |
| \\      /  F ield         | OpenFOAM: The Open Source CFD Toolbox           |
|  \\    /   O peration     | Version:  5.x                                   |
|   \\  /    A nd           | Web:      www.OpenFOAM.org                      |
|    \\/     M anipulation  |                                                 |
\*---------------------------------------------------------------------------*/
/*   Windows 32 and 64 bit porting by blueCAPE: http://www.bluecape.com.pt   *\
|  Based on Windows porting (2.0.x v4) by Symscape: http://www.symscape.com   |
\*---------------------------------------------------------------------------*/
FoamFile
{
    version     2.0;
    format      ascii;
    class       volScalarField;
    location    "0.002";
    object      T;
}
// * * * * * * * * * * * * * * * * * * * * * * * * * * * * * * * * * * * * * //

dimensions      [0 0 0 1 0 0 0];

internalField   nonuniform List<scalar> 
100
(
348.277
344.067
312.299
402.667
338.935
289.455
348.277
344.067
312.299
402.668
338.922
289.631
348.277
344.067
312.299
402.669
338.905
289.843
348.277
344.067
312.299
402.67
338.89
290.033
348.277
344.067
312.299
402.67
338.88
290.181
348.277
344.067
312.299
402.671
338.893
290.478
348.277
344.067
312.299
402.673
338.857
290.91
348.277
344.067
312.299
402.675
338.835
291.2
348.277
344.067
312.299
402.676
338.831
291.26
348.277
344.067
312.299
402.676
338.83
291.269
281.963
280.149
281.995
280.18
282.022
280.2
282.029
280.204
282.03
280.205
278.776
278.749
278.746
278.808
278.752
278.746
278.856
278.758
278.747
278.904
278.764
278.747
278.944
278.769
278.747
279.062
278.784
278.747
279.142
278.793
278.748
279.183
278.796
278.748
279.188
278.797
278.748
279.189
278.797
278.748
)
;

boundaryField
{
    inlet
    {
        type            zeroGradient;
    }
    outlet
    {
        type            zeroGradient;
    }
    bottom
    {
        type            symmetryPlane;
    }
    top
    {
        type            symmetryPlane;
    }
    obstacle
    {
        type            zeroGradient;
    }
    defaultFaces
    {
        type            empty;
    }
}


// ************************************************************************* //
