/*--------------------------------*- C++ -*----------------------------------*\
| =========                 |                                                 |
| \\      /  F ield         | OpenFOAM: The Open Source CFD Toolbox           |
|  \\    /   O peration     | Version:  5.x                                   |
|   \\  /    A nd           | Web:      www.OpenFOAM.org                      |
|    \\/     M anipulation  |                                                 |
\*---------------------------------------------------------------------------*/
/*   Windows 32 and 64 bit porting by blueCAPE: http://www.bluecape.com.pt   *\
|  Based on Windows porting (2.0.x v4) by Symscape: http://www.symscape.com   |
\*---------------------------------------------------------------------------*/
FoamFile
{
    version     2.0;
    format      ascii;
    class       volVectorField;
    location    "0.002";
    object      U;
}
// * * * * * * * * * * * * * * * * * * * * * * * * * * * * * * * * * * * * * //

dimensions      [0 1 -1 0 0 0 0];

internalField   nonuniform List<vector> 
100
(
(0.667456 1.12942e-008 0)
(7.27284 -9.54954e-007 0)
(67.3478 2.07551e-005 0)
(228.975 -0.00247367 0)
(168.125 0.0328778 0)
(32.1921 -0.424981 0)
(0.667456 3.39478e-008 0)
(7.27284 -2.46709e-006 0)
(67.3477 6.70254e-005 0)
(228.976 -0.00666379 0)
(168.081 0.101845 0)
(32.1044 -1.25456 0)
(0.667456 5.0784e-008 0)
(7.27284 -3.27995e-006 0)
(67.3476 0.00010832 0)
(228.979 -0.00936199 0)
(168.023 0.17046 0)
(31.9895 -2.00066 0)
(0.667456 5.8137e-008 0)
(7.27284 -3.6291e-006 0)
(67.3476 0.000131315 0)
(228.981 -0.0108296 0)
(167.969 0.22378 0)
(31.8843 -2.55634 0)
(0.667456 6.11374e-008 0)
(7.27284 -3.75745e-006 0)
(67.3475 0.000147313 0)
(228.982 -0.0117292 0)
(167.926 0.285293 0)
(32.02 -3.2008 0)
(0.667456 5.14876e-008 0)
(7.27284 -3.4819e-006 0)
(67.3474 0.000117676 0)
(228.987 -0.010351 0)
(167.807 0.227729 0)
(37.705 -2.57017 0)
(0.667456 2.55429e-008 0)
(7.27284 -2.16093e-006 0)
(67.3472 4.89063e-005 0)
(228.991 -0.00577099 0)
(167.698 0.0845317 0)
(37.7473 -0.973842 0)
(0.667456 5.50075e-009 0)
(7.27285 -6.39961e-007 0)
(67.3471 9.58619e-006 0)
(228.994 -0.00165116 0)
(167.634 0.0216274 0)
(37.7706 -0.265017 0)
(0.667456 3.33032e-010 0)
(7.27285 -6.99281e-008 0)
(67.3471 3.17056e-007 0)
(228.994 -0.000172648 0)
(167.624 0.00179397 0)
(37.7739 -0.0242272 0)
(0.667456 1.82704e-011 0)
(7.27285 -5.15972e-009 0)
(67.3471 8.78942e-009 0)
(228.994 -1.30107e-005 0)
(167.622 0.00013049 0)
(37.7743 -0.0018533 0)
(10.2049 -0.107686 0)
(4.36818 -0.0369746 0)
(10.4967 -0.0830018 0)
(4.33462 -0.0490273 0)
(10.6709 -0.0253457 0)
(4.32763 -0.0137525 0)
(10.6995 -0.00266988 0)
(4.32957 -0.00142949 0)
(10.7037 -0.000208222 0)
(4.32995 -0.000106602 0)
(0.00829282 -0.0496417 0)
(0.00849779 -0.00451465 0)
(0.000205376 -0.000226769 0)
(0.0191803 -0.172387 0)
(0.0197093 -0.0166134 0)
(0.000532501 -0.000711235 0)
(0.0370308 -0.326478 0)
(0.038149 -0.0334743 0)
(0.00112505 -0.0011392 0)
(0.0567142 -0.459878 0)
(0.0585298 -0.0490251 0)
(0.00183202 -0.00139121 0)
(0.0798355 -0.637063 0)
(0.0756367 -0.0701187 0)
(0.00244606 -0.001549 0)
(1.38322 -0.473549 0)
(0.12951 -0.0507111 0)
(0.00444461 -0.00121412 0)
(1.36675 -0.118189 0)
(0.159319 -0.010217 0)
(0.00527795 -0.000509202 0)
(1.36231 -0.0268731 0)
(0.17385 -0.00217747 0)
(0.00565357 -0.000115386 0)
(1.36329 -0.00164628 0)
(0.175427 -0.000114101 0)
(0.00568724 -8.20734e-006 0)
(1.36346 -0.0001125 0)
(0.175633 -7.4546e-006 0)
(0.00569142 -5.34764e-007 0)
)
;

boundaryField
{
    inlet
    {
        type            zeroGradient;
    }
    outlet
    {
        type            zeroGradient;
    }
    bottom
    {
        type            symmetryPlane;
    }
    top
    {
        type            symmetryPlane;
    }
    obstacle
    {
        type            zeroGradient;
    }
    defaultFaces
    {
        type            empty;
    }
}


// ************************************************************************* //
