/*--------------------------------*- C++ -*----------------------------------*\
| =========                 |                                                 |
| \\      /  F ield         | OpenFOAM: The Open Source CFD Toolbox           |
|  \\    /   O peration     | Version:  5.x                                   |
|   \\  /    A nd           | Web:      www.OpenFOAM.org                      |
|    \\/     M anipulation  |                                                 |
\*---------------------------------------------------------------------------*/
/*   Windows 32 and 64 bit porting by blueCAPE: http://www.bluecape.com.pt   *\
|  Based on Windows porting (2.0.x v4) by Symscape: http://www.symscape.com   |
\*---------------------------------------------------------------------------*/
FoamFile
{
    version     2.0;
    format      ascii;
    class       volScalarField;
    location    "0.006";
    object      mag(U);
}
// * * * * * * * * * * * * * * * * * * * * * * * * * * * * * * * * * * * * * //

dimensions      [0 1 -1 0 0 0 0];

internalField   nonuniform List<scalar> 
100
(
11.4541
49.2625
135.881
225.199
286.665
307.332
11.4541
49.2633
135.872
225.276
286.603
306.681
11.454
49.2642
135.863
225.38
286.511
306.72
11.4539
49.2649
135.856
225.474
286.443
309.114
11.4539
49.2655
135.85
225.546
286.406
314.891
11.4538
49.2666
135.838
225.683
286.138
330.146
11.4535
49.2698
135.803
225.862
285.729
327.15
11.4529
49.2764
135.724
225.899
285.235
323.804
11.4521
49.2864
135.604
225.709
284.702
321.203
11.4518
49.2913
135.539
225.55
284.324
319.826
346.936
363.38
342.36
351.52
336.833
341.701
331.827
333.889
329.487
330.754
108.429
122.821
54.7463
223.3
177.226
59.5486
314.472
247.182
70.6394
351.15
284.076
79.8781
364.844
296.767
82.927
368.936
300.191
81.188
352.318
299.395
85.672
336.42
287.432
93.1277
326.584
279.39
101.2
323.304
277.68
104.811
)
;

boundaryField
{
    inlet
    {
        type            calculated;
        value           nonuniform List<scalar> 10(11.4538 11.4535 11.4529 11.4521 11.4518 11.4541 11.4541 11.454 11.4539 11.4539);
    }
    outlet
    {
        type            calculated;
        value           nonuniform List<scalar> 10(81.188 85.672 93.1277 101.2 104.811 54.7463 59.5486 70.6394 79.8781 82.927);
    }
    bottom
    {
        type            symmetryPlane;
    }
    top
    {
        type            symmetryPlane;
    }
    obstacle
    {
        type            calculated;
        value           nonuniform List<scalar> 
12
(
307.332
306.681
306.72
309.114
314.891
108.429
223.3
314.472
351.15
364.844
346.936
363.38
)
;
    }
    defaultFaces
    {
        type            empty;
    }
}


// ************************************************************************* //
