/*--------------------------------*- C++ -*----------------------------------*\
| =========                 |                                                 |
| \\      /  F ield         | OpenFOAM: The Open Source CFD Toolbox           |
|  \\    /   O peration     | Version:  5.x                                   |
|   \\  /    A nd           | Web:      www.OpenFOAM.org                      |
|    \\/     M anipulation  |                                                 |
\*---------------------------------------------------------------------------*/
/*   Windows 32 and 64 bit porting by blueCAPE: http://www.bluecape.com.pt   *\
|  Based on Windows porting (2.0.x v4) by Symscape: http://www.symscape.com   |
\*---------------------------------------------------------------------------*/
FoamFile
{
    version     2.0;
    format      ascii;
    class       volScalarField;
    location    "0.006";
    object      p;
}
// * * * * * * * * * * * * * * * * * * * * * * * * * * * * * * * * * * * * * //

dimensions      [1 -1 -2 0 0 0 0];

internalField   nonuniform List<scalar> 
100
(
95580.5
79541.4
57073
38841.4
36443.3
33932.5
95580.5
79541.6
57072.8
38847.6
36302.9
33989.3
95580.4
79541.7
57072.5
38851.6
36187.8
34011.7
95580.4
79541.9
57072.2
38854
36116.5
34000.2
95580.4
79542
57072.1
38855.3
36070.5
33988.1
95580.4
79542.2
57071.9
38858.1
35970.8
33950.6
95580.3
79542.9
57071.6
38863.7
35756.9
33994.6
95580.1
79544.9
57072.5
38865.1
35608.2
34052.1
95579.7
79548.5
57062
38936.1
35703.6
34233.3
95579.4
79550.5
57051.9
39008.6
35843
34448.3
31739.4
29913.2
32069.6
30482
32380.1
30918.5
32573.7
31486
32847.9
31943.4
31842
31466.2
12726.2
33416.6
31516
12783.5
31527.7
30009.8
12981
29206.7
28660.9
12997.9
28216.9
27689.7
12955.4
27783.5
26923
12850.1
29337.7
26883.9
12698.9
30380
28647.7
13031.1
31183.4
29815.6
13797.3
31697.2
30542
14199.8
)
;

boundaryField
{
    inlet
    {
        type            zeroGradient;
    }
    outlet
    {
        type            zeroGradient;
    }
    bottom
    {
        type            symmetryPlane;
    }
    top
    {
        type            symmetryPlane;
    }
    obstacle
    {
        type            zeroGradient;
    }
    defaultFaces
    {
        type            empty;
    }
}


// ************************************************************************* //
