/*--------------------------------*- C++ -*----------------------------------*\
| =========                 |                                                 |
| \\      /  F ield         | OpenFOAM: The Open Source CFD Toolbox           |
|  \\    /   O peration     | Version:  5.x                                   |
|   \\  /    A nd           | Web:      www.OpenFOAM.org                      |
|    \\/     M anipulation  |                                                 |
\*---------------------------------------------------------------------------*/
/*   Windows 32 and 64 bit porting by blueCAPE: http://www.bluecape.com.pt   *\
|  Based on Windows porting (2.0.x v4) by Symscape: http://www.symscape.com   |
\*---------------------------------------------------------------------------*/
FoamFile
{
    version     2.0;
    format      ascii;
    class       surfaceScalarField;
    location    "0.006";
    object      phi;
}
// * * * * * * * * * * * * * * * * * * * * * * * * * * * * * * * * * * * * * //

dimensions      [1 0 -1 0 0 0 0];

internalField   nonuniform List<scalar> 
174
(
8.47473
0.00168012
17.6223
-0.0103032
23.7926
0.0568997
21.9723
-0.234113
18.8834
0.925963
-0.403627
5.66746
0.00272407
11.7842
-0.0166506
15.9152
0.0938492
14.6651
-0.383673
12.5643
1.69619
-0.713544
3.79011
0.00336577
7.88013
-0.0205033
10.6469
0.115731
9.78864
-0.46801
8.39106
2.17882
-0.840681
2.53462
0.00376453
5.26953
-0.0228631
7.12208
0.128486
6.54006
-0.5177
5.69756
2.36888
-0.829298
1.69502
0.00401658
3.52382
-0.0243304
4.76362
0.136207
4.37537
-0.551507
3.90279
2.37992
-0.788741
7.19444
0.00493406
14.9555
-0.0297187
20.229
0.1588
18.5627
-0.683196
17.5183
1.41871
-0.967105
15.9187
12.7943
0.00587656
26.5899
-0.034923
35.9935
0.175762
32.8751
-0.819039
30.7978
0.193561
-0.95864
27.9831
22.7539
0.00489674
47.2631
-0.0270841
64.0042
0.163857
58.2116
-0.789498
54.0927
-0.508491
-0.92929
49.3429
40.468
0.00197521
83.9901
-0.0104257
113.746
0.0764799
103.425
-0.401159
95.6113
-0.406655
-0.533526
87.0452
71.9677
149.303
202.19
184.041
169.902
154.042
15.4491
-0.51928
-0.909513
14.9554
27.1147
-0.460243
-0.841631
25.9548
47.6599
-0.344384
-0.594785
45.2057
83.0874
-0.184134
-0.283601
79.9027
147.622
142.57
6.6505
-0.133318
8.03077
-4.48362
-6.37411
8.73961
-1.36894
4.78496
-5.71188
-10.5719
7.32479
-3.29969
5.24258
-8.8947
-9.6689
4.98999
-4.32944
4.36648
-11.8254
-8.17117
3.3938
-4.7784
2.93037
-13.0843
-7.58869
13.2028
-3.92294
10.796
-15.186
-8.10382
23.548
-2.42462
13.2622
-14.9597
-7.31739
42.7146
-1.31436
27.4963
-8.7329
-4.89811
77.644
-0.53507
67.027
-3.0054
-1.91103
139.689
126.019
)
;

boundaryField
{
    inlet
    {
        type            calculated;
        value           nonuniform List<scalar> 10(-1.79095 -3.18473 -5.66302 -10.0697 -17.9063 -2.10985 -1.41094 -0.943544 -0.630982 -0.421962);
    }
    outlet
    {
        type            calculated;
        value           nonuniform List<scalar> 10(1.84319 3.44729 6.85916 13.8051 25.8867 1.49559 1.04429 0.824575 0.632084 0.44413);
    }
    bottom
    {
        type            symmetryPlane;
        value           uniform 0;
    }
    top
    {
        type            symmetryPlane;
        value           uniform 0;
    }
    obstacle
    {
        type            calculated;
        value           nonuniform List<scalar> 
12
(
17.3438
11.5897
7.7587
5.22495
3.55239
-6.00163
-8.27173
-7.0454
-4.92059
-3.3366
0.458397
0.7877
)
;
    }
    defaultFaces
    {
        type            empty;
        value           nonuniform 0();
    }
}


// ************************************************************************* //
