/*--------------------------------*- C++ -*----------------------------------*\
| =========                 |                                                 |
| \\      /  F ield         | OpenFOAM: The Open Source CFD Toolbox           |
|  \\    /   O peration     | Version:  5.x                                   |
|   \\  /    A nd           | Web:      www.OpenFOAM.org                      |
|    \\/     M anipulation  |                                                 |
\*---------------------------------------------------------------------------*/
/*   Windows 32 and 64 bit porting by blueCAPE: http://www.bluecape.com.pt   *\
|  Based on Windows porting (2.0.x v4) by Symscape: http://www.symscape.com   |
\*---------------------------------------------------------------------------*/
FoamFile
{
    version     2.0;
    format      ascii;
    class       volScalarField;
    location    "0.006";
    object      T;
}
// * * * * * * * * * * * * * * * * * * * * * * * * * * * * * * * * * * * * * //

dimensions      [0 0 0 1 0 0 0];

internalField   nonuniform List<scalar> 
100
(
343.655
328.054
282.116
295.013
347.178
399.513
343.655
328.054
282.116
295.028
347.075
399.639
343.655
328.054
282.116
295.039
347.054
399.528
343.655
328.054
282.115
295.053
346.678
399.707
343.655
328.054
282.115
295.083
345.423
400.361
343.655
328.054
282.115
295.109
344.509
391.119
343.655
328.054
282.115
295.139
344.781
391.809
343.655
328.055
282.122
295.174
345.453
392.506
343.655
328.057
282.119
295.318
346.425
393.348
343.654
328.059
282.111
295.462
347.047
394.201
405.495
405.685
406.543
408.271
406.703
408.445
406.479
410.024
407.101
411.496
381.631
390.279
302.972
400.705
403.061
304.239
416.913
412.987
311.212
408.675
404.162
314.385
403.89
395.379
312.369
402.519
392.191
309.718
402.965
390.241
308.441
407.147
394.566
311.486
409.264
397.137
318.876
410.646
399.198
322.755
)
;

boundaryField
{
    inlet
    {
        type            zeroGradient;
    }
    outlet
    {
        type            zeroGradient;
    }
    bottom
    {
        type            symmetryPlane;
    }
    top
    {
        type            symmetryPlane;
    }
    obstacle
    {
        type            zeroGradient;
    }
    defaultFaces
    {
        type            empty;
    }
}


// ************************************************************************* //
