/*--------------------------------*- C++ -*----------------------------------*\
| =========                 |                                                 |
| \\      /  F ield         | OpenFOAM: The Open Source CFD Toolbox           |
|  \\    /   O peration     | Version:  5.x                                   |
|   \\  /    A nd           | Web:      www.OpenFOAM.org                      |
|    \\/     M anipulation  |                                                 |
\*---------------------------------------------------------------------------*/
/*   Windows 32 and 64 bit porting by blueCAPE: http://www.bluecape.com.pt   *\
|  Based on Windows porting (2.0.x v4) by Symscape: http://www.symscape.com   |
\*---------------------------------------------------------------------------*/
FoamFile
{
    version     2.0;
    format      ascii;
    class       volVectorField;
    location    "0.006";
    object      U;
}
// * * * * * * * * * * * * * * * * * * * * * * * * * * * * * * * * * * * * * //

dimensions      [0 1 -1 0 0 0 0];

internalField   nonuniform List<vector> 
100
(
(11.4541 0.000182483 0)
(49.2625 -0.00177627 0)
(135.881 0.0162803 0)
(225.199 -0.141903 0)
(286.664 0.826053 0)
(307.331 -0.685559 0)
(11.4541 0.000475088 0)
(49.2633 -0.00460864 0)
(135.872 0.0427318 0)
(225.276 -0.370761 0)
(286.592 2.5302 0)
(306.675 -1.90155 0)
(11.454 0.000653455 0)
(49.2642 -0.00631272 0)
(135.863 0.0589745 0)
(225.38 -0.508279 0)
(286.483 3.9935 0)
(306.708 -2.73909 0)
(11.4539 0.000764174 0)
(49.2649 -0.00735756 0)
(135.856 0.0685356 0)
(225.474 -0.58529 0)
(286.404 4.74179 0)
(309.1 -2.97643 0)
(11.4539 0.000833852 0)
(49.2655 -0.00800403 0)
(135.85 0.0743425 0)
(225.546 -0.637502 0)
(286.362 5.05064 0)
(314.879 -2.83985 0)
(11.4538 0.000964268 0)
(49.2666 -0.00922984 0)
(135.838 0.0836973 0)
(225.682 -0.741103 0)
(286.11 3.99945 0)
(330.133 -2.9978 0)
(11.4535 0.00123498 0)
(49.2698 -0.011738 0)
(135.803 0.0999094 0)
(225.86 -0.956161 0)
(285.726 1.21846 0)
(327.133 -3.34689 0)
(11.4529 0.00121517 0)
(49.2764 -0.0109737 0)
(135.724 0.102504 0)
(225.896 -1.03734 0)
(285.233 -0.906973 0)
(323.784 -3.53063 0)
(11.4521 0.000636851 0)
(49.2864 -0.00534933 0)
(135.604 0.0613816 0)
(225.708 -0.648113 0)
(284.7 -1.0847 0)
(321.195 -2.30259 0)
(11.4518 0.000122924 0)
(49.2913 -0.0010105 0)
(135.539 0.0134242 0)
(225.55 -0.153931 0)
(284.324 -0.315604 0)
(319.826 -0.643173 0)
(346.87 -6.79177 0)
(363.169 -12.3893 0)
(342.278 -7.49273 0)
(351.217 -14.5933 0)
(336.783 -5.78871 0)
(341.546 -10.2875 0)
(331.81 -3.29976 0)
(333.847 -5.30491 0)
(329.486 -0.891281 0)
(330.752 -1.29913 0)
(108.251 -6.21087 0)
(121.869 -15.2622 0)
(54.1881 -7.79803 0)
(223.273 3.44085 0)
(176.743 -13.0784 0)
(56.532 -18.7128 0)
(313.551 -24.0498 0)
(245.9 -25.1486 0)
(67.0713 -22.1666 0)
(346.437 -57.3364 0)
(280.729 -43.4763 0)
(77.4358 -19.6013 0)
(359.342 -63.1212 0)
(291.152 -57.4571 0)
(81.048 -17.553 0)
(365.727 -48.557 0)
(293.328 -63.8231 0)
(79.2113 -17.8062 0)
(350.497 -35.7748 0)
(293.098 -61.0803 0)
(83.9335 -17.1713 0)
(335.916 -18.3994 0)
(284.748 -39.1916 0)
(92.415 -11.4994 0)
(326.487 -7.96018 0)
(279.033 -14.107 0)
(101.078 -4.96012 0)
(323.3 -1.76371 0)
(277.667 -2.65817 0)
(104.806 -1.04 0)
)
;

boundaryField
{
    inlet
    {
        type            zeroGradient;
    }
    outlet
    {
        type            zeroGradient;
    }
    bottom
    {
        type            symmetryPlane;
    }
    top
    {
        type            symmetryPlane;
    }
    obstacle
    {
        type            zeroGradient;
    }
    defaultFaces
    {
        type            empty;
    }
}


// ************************************************************************* //
