/*--------------------------------*- C++ -*----------------------------------*\
| =========                 |                                                 |
| \\      /  F ield         | OpenFOAM: The Open Source CFD Toolbox           |
|  \\    /   O peration     | Version:  5.x                                   |
|   \\  /    A nd           | Web:      www.OpenFOAM.org                      |
|    \\/     M anipulation  |                                                 |
\*---------------------------------------------------------------------------*/
/*   Windows 32 and 64 bit porting by blueCAPE: http://www.bluecape.com.pt   *\
|  Based on Windows porting (2.0.x v4) by Symscape: http://www.symscape.com   |
\*---------------------------------------------------------------------------*/
FoamFile
{
    version     2.0;
    format      ascii;
    class       volScalarField;
    location    "0.0085";
    object      mag(U);
}
// * * * * * * * * * * * * * * * * * * * * * * * * * * * * * * * * * * * * * //

dimensions      [0 1 -1 0 0 0 0];

internalField   nonuniform List<scalar> 
100
(
22.1281
78.9512
162.684
225.412
259.029
274.917
22.1279
78.9525
162.68
225.467
259.115
274.88
22.1278
78.9539
162.676
225.531
259.206
274.977
22.1276
78.955
162.672
225.589
259.285
275.345
22.1275
78.9558
162.67
225.639
259.349
276.026
22.1272
78.9577
162.663
225.734
259.437
282.219
22.1264
78.9628
162.643
225.893
259.527
281.985
22.1245
78.9746
162.59
226.187
259.94
281.673
22.1196
78.9893
162.458
226.401
260.139
280.675
22.1148
78.999
162.331
226.241
259.832
279.704
291.545
306.072
290.647
303.323
290.161
302.602
288.897
300.046
287.699
298.169
126.803
164.499
145.192
248.361
261.936
197.888
332.034
339.755
254.302
355.217
362.151
274.149
349.071
360.075
274.351
321.094
349.163
269.781
317.227
347.738
263.627
315.829
344.491
263.575
311.73
339.855
265.208
309.047
335.934
263.732
)
;

boundaryField
{
    inlet
    {
        type            calculated;
        value           nonuniform List<scalar> 10(22.1272 22.1264 22.1245 22.1196 22.1148 22.1281 22.1279 22.1278 22.1276 22.1275);
    }
    outlet
    {
        type            calculated;
        value           nonuniform List<scalar> 10(269.781 263.627 263.575 265.208 263.732 145.192 197.888 254.302 274.149 274.351);
    }
    bottom
    {
        type            symmetryPlane;
    }
    top
    {
        type            symmetryPlane;
    }
    obstacle
    {
        type            calculated;
        value           nonuniform List<scalar> 
12
(
274.917
274.88
274.977
275.345
276.026
126.803
248.361
332.034
355.217
349.071
291.545
306.072
)
;
    }
    defaultFaces
    {
        type            empty;
    }
}


// ************************************************************************* //
