/*--------------------------------*- C++ -*----------------------------------*\
| =========                 |                                                 |
| \\      /  F ield         | OpenFOAM: The Open Source CFD Toolbox           |
|  \\    /   O peration     | Version:  5.x                                   |
|   \\  /    A nd           | Web:      www.OpenFOAM.org                      |
|    \\/     M anipulation  |                                                 |
\*---------------------------------------------------------------------------*/
/*   Windows 32 and 64 bit porting by blueCAPE: http://www.bluecape.com.pt   *\
|  Based on Windows porting (2.0.x v4) by Symscape: http://www.symscape.com   |
\*---------------------------------------------------------------------------*/
FoamFile
{
    version     2.0;
    format      ascii;
    class       volScalarField;
    location    "0.0085";
    object      p;
}
// * * * * * * * * * * * * * * * * * * * * * * * * * * * * * * * * * * * * * //

dimensions      [1 -1 -2 0 0 0 0];

internalField   nonuniform List<scalar> 
100
(
89280.7
72455.5
51760
39406.4
32999
31971.1
89280.7
72455.6
51759.4
39407.6
32987.9
32002.1
89280.7
72455.7
51758.7
39408.6
32976.5
32047
89280.6
72455.8
51758.1
39409.1
32967.1
32087.3
89280.6
72455.9
51757.6
39409.3
32960.3
32119.5
89280.6
72456.1
51756.6
39409.5
32940.2
32195
89280.5
72456.6
51753.9
39405.6
32943.9
32283.5
89280.3
72458
51745.4
39377.3
32940.8
32290.6
89280
72463.5
51727.9
39396.3
32788.1
32050.7
89279.4
72474
51723.2
39458.5
32740.6
31973.1
31365.8
30648
31541.2
30886.3
31565.3
30937.8
31257.6
30587.6
31155
30472.8
29969.7
29930.9
27080.2
29790.8
29781.1
26959.3
29721.3
29715.1
26892.7
29628.6
29648
26859.8
29559.5
29599.7
26844.4
29363.8
29439.4
26812.7
29679.3
29510.4
26742.7
29685.1
29412.5
26277.6
29491
29167.6
25468.8
29457.6
29134.8
25396.1
)
;

boundaryField
{
    inlet
    {
        type            zeroGradient;
    }
    outlet
    {
        type            zeroGradient;
    }
    bottom
    {
        type            symmetryPlane;
    }
    top
    {
        type            symmetryPlane;
    }
    obstacle
    {
        type            zeroGradient;
    }
    defaultFaces
    {
        type            empty;
    }
}


// ************************************************************************* //
