/*--------------------------------*- C++ -*----------------------------------*\
| =========                 |                                                 |
| \\      /  F ield         | OpenFOAM: The Open Source CFD Toolbox           |
|  \\    /   O peration     | Version:  5.x                                   |
|   \\  /    A nd           | Web:      www.OpenFOAM.org                      |
|    \\/     M anipulation  |                                                 |
\*---------------------------------------------------------------------------*/
/*   Windows 32 and 64 bit porting by blueCAPE: http://www.bluecape.com.pt   *\
|  Based on Windows porting (2.0.x v4) by Symscape: http://www.symscape.com   |
\*---------------------------------------------------------------------------*/
FoamFile
{
    version     2.0;
    format      ascii;
    class       surfaceScalarField;
    location    "0.0085";
    object      phi;
}
// * * * * * * * * * * * * * * * * * * * * * * * * * * * * * * * * * * * * * //

dimensions      [1 0 -1 0 0 0 0];

internalField   nonuniform List<scalar> 
174
(
13.5
0.00365515
20.7645
-0.0227341
24.2107
0.0800201
21.8476
-0.0605478
18.9123
0.514786
0.584736
9.02812
0.00599325
13.8859
-0.0377882
16.194
0.129267
14.612
-0.104937
12.6476
0.892564
0.925228
6.03754
0.00748689
9.28593
-0.0477088
10.8321
0.159303
9.77258
-0.134807
8.4644
1.15596
1.11371
4.03758
0.00844971
6.2098
-0.0542422
7.24509
0.177855
6.53753
-0.156848
5.6735
1.3342
1.22102
2.70011
0.00907746
4.1527
-0.0585537
4.84542
0.189673
4.37581
-0.175876
3.80927
1.45466
1.28744
11.4605
0.0115325
17.6256
-0.0765433
20.5721
0.232029
18.5808
-0.266639
17.0534
1.23757
1.27559
15.4992
20.3809
0.0149806
31.3412
-0.104927
36.6026
0.276728
33.0424
-0.438716
30.3032
0.971492
1.09123
27.4144
36.2466
0.0170325
55.722
-0.133361
65.1479
0.220194
58.7737
-0.668607
53.6738
0.505325
0.487325
48.2721
64.4613
0.012295
99.0326
-0.098921
115.925
0.101916
104.407
-0.525524
94.4002
-0.0877325
-0.17719
83.9768
114.627
176.015
206.051
185.465
166.836
147.699
15.2002
0.285778
0.225253
15.1164
26.9281
0.260975
0.228294
26.8016
47.5542
0.128983
0.124959
47.3716
82.8242
-0.0484101
-0.0672162
82.4132
145.592
144.862
7.32281
-0.157973
9.58688
-0.994011
-3.51335
8.63836
-0.128353
9.42403
-0.969511
-3.91418
7.27201
-0.135495
7.79856
-0.998898
-3.47497
5.18914
-0.138215
5.60944
-1.13648
-3.09899
3.49237
-0.136605
3.79053
-1.3177
-2.85992
14.6478
0.0360587
15.8584
-2.70016
-1.98146
26.6764
0.0316385
26.8136
-2.59873
-2.09462
46.9963
0.0454251
46.4458
-1.92553
-5.53695
82.0186
-0.170181
82.2632
-1.72877
-7.74515
144.169
145.281
)
;

boundaryField
{
    inlet
    {
        type            calculated;
        value           nonuniform List<scalar> 10(-3.30774 -5.88188 -10.4587 -18.5943 -33.0584 -3.89677 -2.60591 -1.74266 -1.16538 -0.779331);
    }
    outlet
    {
        type            calculated;
        value           nonuniform List<scalar> 10(9.98191 17.4887 30.8303 53.9026 95.2954 6.73593 5.89273 4.86549 3.52289 2.37719);
    }
    bottom
    {
        type            symmetryPlane;
        value           uniform 0;
    }
    top
    {
        type            symmetryPlane;
        value           uniform 0;
    }
    obstacle
    {
        type            calculated;
        value           nonuniform List<scalar> 
12
(
17.1771
11.4908
7.69273
5.15762
3.46202
-6.7158
-8.38455
-7.09809
-5.09123
-3.44871
-0.331402
-0.270809
)
;
    }
    defaultFaces
    {
        type            empty;
        value           nonuniform 0();
    }
}


// ************************************************************************* //
