/*--------------------------------*- C++ -*----------------------------------*\
| =========                 |                                                 |
| \\      /  F ield         | OpenFOAM: The Open Source CFD Toolbox           |
|  \\    /   O peration     | Version:  5.x                                   |
|   \\  /    A nd           | Web:      www.OpenFOAM.org                      |
|    \\/     M anipulation  |                                                 |
\*---------------------------------------------------------------------------*/
/*   Windows 32 and 64 bit porting by blueCAPE: http://www.bluecape.com.pt   *\
|  Based on Windows porting (2.0.x v4) by Symscape: http://www.symscape.com   |
\*---------------------------------------------------------------------------*/
FoamFile
{
    version     2.0;
    format      ascii;
    class       volScalarField;
    location    "0.0085";
    object      T;
}
// * * * * * * * * * * * * * * * * * * * * * * * * * * * * * * * * * * * * * //

dimensions      [0 0 0 1 0 0 0];

internalField   nonuniform List<scalar> 
100
(
336.275
322.377
274.319
277.65
289.823
340.035
336.275
322.377
274.316
277.647
289.844
340.195
336.275
322.377
274.312
277.644
289.87
340.413
336.275
322.376
274.309
277.656
289.754
340.421
336.275
322.376
274.304
277.704
289.327
340.327
336.275
322.376
274.298
277.729
289.308
316.388
336.275
322.376
274.289
277.715
289.503
317.643
336.275
322.374
274.272
277.618
289.958
319.509
336.275
322.375
274.261
277.573
290.111
320.273
336.275
322.383
274.276
277.643
290.199
320.724
350.14
354.764
351.089
354.711
352.697
355.975
352.538
355.697
352.571
355.725
375.511
372.784
387.504
392.19
387.896
402.147
413.207
405.893
417.561
410.877
402.298
415.309
397.682
393.094
411.663
364.01
382.009
408.715
362.533
383.526
404.334
363.49
383.576
400.568
363.363
382.095
396.966
363.691
381.611
396.289
)
;

boundaryField
{
    inlet
    {
        type            zeroGradient;
    }
    outlet
    {
        type            zeroGradient;
    }
    bottom
    {
        type            symmetryPlane;
    }
    top
    {
        type            symmetryPlane;
    }
    obstacle
    {
        type            zeroGradient;
    }
    defaultFaces
    {
        type            empty;
    }
}


// ************************************************************************* //
