/*--------------------------------*- C++ -*----------------------------------*\
| =========                 |                                                 |
| \\      /  F ield         | OpenFOAM: The Open Source CFD Toolbox           |
|  \\    /   O peration     | Version:  5.x                                   |
|   \\  /    A nd           | Web:      www.OpenFOAM.org                      |
|    \\/     M anipulation  |                                                 |
\*---------------------------------------------------------------------------*/
/*   Windows 32 and 64 bit porting by blueCAPE: http://www.bluecape.com.pt   *\
|  Based on Windows porting (2.0.x v4) by Symscape: http://www.symscape.com   |
\*---------------------------------------------------------------------------*/
FoamFile
{
    version     2.0;
    format      ascii;
    class       volVectorField;
    location    "0.0085";
    object      U;
}
// * * * * * * * * * * * * * * * * * * * * * * * * * * * * * * * * * * * * * //

dimensions      [0 1 -1 0 0 0 0];

internalField   nonuniform List<vector> 
100
(
(22.1281 0.000414225 0)
(78.9512 -0.00419248 0)
(162.684 0.0246912 0)
(225.412 -0.0331038 0)
(259.029 0.501694 0)
(274.915 0.962256 0)
(22.1279 0.00108804 0)
(78.9525 -0.0111147 0)
(162.68 0.063724 0)
(225.467 -0.0903993 0)
(259.112 1.31915 0)
(274.87 2.38743 0)
(22.1278 0.00151451 0)
(78.9539 -0.0156537 0)
(162.676 0.0870393 0)
(225.531 -0.132319 0)
(259.198 1.94497 0)
(274.957 3.26033 0)
(22.1276 0.00178899 0)
(78.955 -0.0186522 0)
(162.672 0.101443 0)
(225.589 -0.159126 0)
(259.275 2.3522 0)
(275.321 3.66126 0)
(22.1275 0.00196771 0)
(78.9558 -0.0206358 0)
(162.67 0.110602 0)
(225.639 -0.182624 0)
(259.335 2.71498 0)
(275.997 3.99265 0)
(22.1272 0.00232276 0)
(78.9576 -0.0247525 0)
(162.663 0.128355 0)
(225.734 -0.238503 0)
(259.424 2.60445 0)
(282.192 3.90084 0)
(22.1264 0.00301869 0)
(78.9628 -0.0335782 0)
(162.643 0.164716 0)
(225.893 -0.402278 0)
(259.519 2.14404 0)
(281.963 3.56669 0)
(22.1245 0.00395859 0)
(78.9746 -0.048584 0)
(162.59 0.157271 0)
(226.186 -0.705187 0)
(259.936 1.41534 0)
(281.663 2.33 0)
(22.1196 0.00348947 0)
(78.9893 -0.0455153 0)
(162.458 0.087404 0)
(226.4 -0.713478 0)
(260.139 -0.0313306 0)
(280.674 -0.382399 0)
(22.1148 0.00124621 0)
(78.999 -0.0164676 0)
(162.331 0.0236731 0)
(226.241 -0.265891 0)
(259.831 -0.351503 0)
(279.703 -0.657355 0)
(291.514 4.23293 0)
(306.051 3.57308 0)
(290.626 3.50491 0)
(303.31 2.85749 0)
(290.148 2.66069 0)
(302.589 2.81291 0)
(288.896 -0.469129 0)
(300.045 -0.780484 0)
(287.698 -0.761512 0)
(298.167 -0.928077 0)
(126.616 -6.89208 0)
(164.296 -8.1843 0)
(145.088 -5.50154 0)
(248.359 0.880153 0)
(261.932 -1.45915 0)
(197.836 -4.53775 0)
(332.023 -2.71188 0)
(339.725 -4.5657 0)
(254.239 -5.64108 0)
(355.215 -1.13906 0)
(362.133 -3.54835 0)
(274.114 -4.42572 0)
(349.064 -2.28096 0)
(360.04 -5.02847 0)
(274.319 -4.1455 0)
(321.092 1.28697 0)
(349.077 -7.7714 0)
(269.761 -3.31066 0)
(317.227 -0.666002 0)
(347.545 -11.5782 0)
(263.624 -1.17884 0)
(315.823 1.90346 0)
(344.407 -7.57534 0)
(263.496 -6.485 0)
(311.723 -2.08739 0)
(339.76 -8.05846 0)
(264.9 -12.7893 0)
(309.044 -1.32276 0)
(335.92 -3.00782 0)
(263.661 -6.10555 0)
)
;

boundaryField
{
    inlet
    {
        type            zeroGradient;
    }
    outlet
    {
        type            zeroGradient;
    }
    bottom
    {
        type            symmetryPlane;
    }
    top
    {
        type            symmetryPlane;
    }
    obstacle
    {
        type            zeroGradient;
    }
    defaultFaces
    {
        type            empty;
    }
}


// ************************************************************************* //
