/*--------------------------------*- C++ -*----------------------------------*\
| =========                 |                                                 |
| \\      /  F ield         | OpenFOAM: The Open Source CFD Toolbox           |
|  \\    /   O peration     | Version:  5.x                                   |
|   \\  /    A nd           | Web:      www.OpenFOAM.org                      |
|    \\/     M anipulation  |                                                 |
\*---------------------------------------------------------------------------*/
/*   Windows 32 and 64 bit porting by blueCAPE: http://www.bluecape.com.pt   *\
|  Based on Windows porting (2.0.x v4) by Symscape: http://www.symscape.com   |
\*---------------------------------------------------------------------------*/
FoamFile
{
    version     2.0;
    format      ascii;
    class       volScalarField;
    location    "0.003";
    object      mag(U);
}
// * * * * * * * * * * * * * * * * * * * * * * * * * * * * * * * * * * * * * //

dimensions      [0 1 -1 0 0 0 0];

internalField   nonuniform List<scalar> 
10000
(
2.20231e-012
1.48037e-012
7.82968e-012
8.83269e-011
8.68129e-010
9.43579e-009
7.98348e-008
7.21732e-007
5.30652e-006
3.97224e-005
0.000249177
0.00152996
0.00802388
0.0397146
0.169053
0.641032
2.03481
5.61239
13.1729
26.8842
47.273
72.9303
101.224
129.406
156.651
181.967
205.591
227.061
244.689
259.237
272.123
282.736
291.482
300.356
309.735
318.187
325.259
331.118
335.794
339.014
340.323
338.607
334.222
328.059
318.832
302.903
271.392
191.948
61.6622
8.74416
1.30733
0.2358
0.0391961
0.00697837
0.00151588
0.000262971
7.9066e-005
6.09611e-006
5.14561e-006
6.76864e-007
3.60539e-012
3.21486e-012
8.49304e-012
8.35331e-011
7.99378e-010
8.75521e-009
7.26631e-008
6.61902e-007
4.79968e-006
3.61889e-005
0.000225119
0.00139187
0.00727824
0.036283
0.155107
0.594321
1.90057
5.28949
12.512
25.7583
45.6692
70.9979
99.1919
127.512
154.973
180.63
204.739
226.791
245.041
260.164
273.587
284.446
292.639
300.043
307.35
313.21
316.793
318.273
317.844
315.829
312.462
307.3
301.08
294.792
287.17
275.466
252.729
191.541
75.7299
12.7111
2.20361
0.388002
0.0644617
0.0129049
0.00229809
0.000572408
0.000110832
2.4673e-005
5.73236e-006
2.12893e-007
2.60401e-012
3.94255e-012
5.7873e-012
8.14833e-011
7.83226e-010
8.62583e-009
7.13903e-008
6.53073e-007
4.72996e-006
3.57779e-005
0.00022253
0.00137919
0.00721536
0.0360367
0.154097
0.591111
1.89183
5.27027
12.4741
25.6885
45.5497
70.7928
98.8443
126.975
154.09
179.676
203.276
224.877
243.282
258.639
271.716
281.647
288.604
294.521
300.237
304.238
306.072
306.671
306.658
306.417
305.683
303.448
299.828
295.556
289.551
278.974
257.059
197.54
85.316
15.242
2.81116
0.491574
0.0859616
0.0167282
0.00292713
0.000721998
0.000120504
3.61486e-005
6.44365e-006
1.12464e-006
4.21363e-012
2.94506e-012
4.68975e-012
7.82874e-011
7.29714e-010
8.10772e-009
6.58948e-008
6.07686e-007
4.34182e-006
3.30762e-005
0.00020394
0.00127206
0.00663025
0.033319
0.142902
0.553319
1.78204
5.00339
11.9209
24.7363
44.1738
69.1053
97.0367
125.3
152.509
178.656
202.487
224.331
243.422
259.693
273.468
283.53
289.856
294.368
298.236
300.232
299.667
297.564
295.09
293.148
291.84
290.329
288.306
285.757
281.686
273.826
256.606
207.62
101.787
19.7884
3.78111
0.656901
0.120881
0.0227442
0.00437088
0.000935434
0.00016369
4.83327e-005
8.12452e-006
2.1395e-006
1.65281e-012
1.43795e-012
4.75326e-012
7.51486e-011
7.04343e-010
7.90276e-009
6.38486e-008
5.93247e-007
4.2261e-006
3.23787e-005
0.000199474
0.00124959
0.00651666
0.0328586
0.141006
0.547152
1.76486
4.96455
11.8442
24.602
43.972
68.8228
96.6358
124.712
151.695
177.544
201.109
222.646
241.484
257.529
271.053
280.947
287.224
291.651
295.419
297.377
296.686
294.329
291.695
289.813
288.763
287.55
285.913
284.067
280.921
273.97
257.581
212.284
112.511
24.2449
4.7371
0.820342
0.159942
0.0290602
0.00626966
0.00116222
0.000241262
5.87836e-005
1.05858e-005
2.86451e-006
2.18006e-012
8.3109e-013
1.58537e-012
7.28046e-011
6.60697e-010
7.49681e-009
5.95197e-008
5.58205e-007
3.92392e-006
3.02923e-005
0.000184978
0.00116608
0.00605541
0.0307044
0.131999
0.516516
1.67487
4.74368
11.3805
23.7954
42.7899
67.3444
95.0253
123.18
150.361
176.456
200.338
222.433
241.72
257.973
271.704
281.919
288.483
292.922
296.593
298.569
297.748
294.854
291.226
288.027
285.852
284.351
282.9
281.366
278.928
273.365
259.927
221.395
126.643
30.4803
5.89106
1.03678
0.205143
0.0377897
0.00846541
0.0014614
0.00036508
7.16973e-005
1.55811e-005
3.63733e-006
2.95095e-012
2.15683e-012
4.42302e-012
6.94906e-011
6.31809e-010
7.26386e-009
5.7151e-008
5.41399e-007
3.78679e-006
2.94564e-005
0.000179532
0.00113824
0.00591221
0.0301113
0.129544
0.508432
1.65205
4.69118
11.276
23.614
42.5265
67.0034
94.5869
122.582
149.546
175.393
199.042
220.791
239.792
255.844
269.439
279.667
286.524
291.564
296.084
299.103
299.376
297.402
294.365
291.428
289.057
286.83
284.528
282.407
279.75
274.277
261.322
226.153
137.478
37.0562
7.11153
1.28257
0.253748
0.049272
0.0104789
0.00186179
0.000491431
8.73624e-005
2.25187e-005
4.09906e-006
1.60895e-012
2.21587e-012
1.55681e-012
6.8246e-011
5.94785e-010
6.93515e-009
5.36255e-008
5.13631e-007
3.54559e-006
2.78143e-005
0.00016803
0.00107229
0.00554439
0.0283909
0.122241
0.483422
1.5778
4.50748
10.8858
22.9281
41.5082
65.7079
93.1453
121.196
148.323
174.414
198.333
220.54
239.918
256.154
269.943
280.512
287.767
293.054
297.752
301.021
301.501
299.507
296.121
292.496
289.471
287.163
284.935
282.678
280.034
275.107
263.866
233.123
149.816
44.868
8.51774
1.57755
0.311027
0.0639907
0.012629
0.00248797
0.000614697
0.00011094
3.03944e-005
5.18572e-006
1.64357e-012
3.95798e-012
4.87305e-012
6.48684e-011
5.65721e-010
6.7021e-009
5.12081e-008
4.96493e-007
3.40311e-006
2.69405e-005
0.000162237
0.00104233
0.00538766
0.0277306
0.119488
0.474258
1.55161
4.44634
10.763
22.7146
41.2009
65.3227
92.6823
120.597
147.529
173.394
197.111
219.031
238.174
254.257
267.923
278.444
285.82
291.468
296.7
300.623
301.801
300.466
297.632
294.467
291.553
288.816
286.068
283.533
280.827
276.027
265.263
237.122
159.921
53.0745
10.0539
1.90962
0.377606
0.0804842
0.0150168
0.00334581
0.000729454
0.00014382
3.84875e-005
6.23488e-006
2.07412e-012
3.48452e-012
2.5042e-012
6.36876e-011
5.33523e-010
6.42876e-009
4.82518e-008
4.73911e-007
3.20554e-006
2.56197e-005
0.00015292
0.000989372
0.00508985
0.0263403
0.1135
0.453632
1.48978
4.29241
10.4323
22.128
40.3205
64.1862
91.3901
119.336
146.406
172.499
196.443
218.75
238.255
254.495
268.29
279.058
286.663
292.319
297.419
301.253
302.397
300.978
297.945
294.396
291.26
288.794
286.391
283.876
281.172
276.735
267.093
242.04
170.631
62.1579
11.8081
2.29009
0.459684
0.0977704
0.0180036
0.0043774
0.000859187
0.000192912
4.65168e-005
8.19998e-006
1.56366e-012
3.6782e-012
5.64409e-012
6.03415e-011
5.05783e-010
6.21001e-009
4.59336e-008
4.57565e-007
3.06708e-006
2.47685e-005
0.00014718
0.00095944
0.00493069
0.0256601
0.110641
0.444016
1.46197
4.2266
10.2988
21.8944
39.9842
63.7696
90.9111
118.745
145.636
171.544
195.304
217.362
236.7
252.909
266.702
277.479
285.137
290.984
296.36
300.5
301.932
300.754
297.949
294.677
291.656
288.951
286.347
283.929
281.465
277.289
268.146
245.132
179.702
71.5308
13.7372
2.7194
0.557157
0.114692
0.0218495
0.00541435
0.00101723
0.000249138
5.5641e-005
1.04904e-005
1.37634e-012
3.53334e-012
3.91944e-012
5.93861e-011
4.77322e-010
5.97835e-009
4.34008e-008
4.38797e-007
2.90154e-006
2.36836e-005
0.000139476
0.000916128
0.00468553
0.0245201
0.105669
0.426797
1.40993
4.09637
10.0164
21.3893
39.219
62.7705
89.752
117.592
144.601
170.706
194.657
217.043
236.717
253.058
266.94
277.955
285.866
291.785
297.099
301.186
302.57
301.185
298.008
294.166
290.741
288.217
285.985
283.736
281.43
277.673
269.438
248.649
188.704
81.2628
15.9303
3.21867
0.671268
0.132488
0.0270008
0.00644774
0.00122378
0.000313154
6.65819e-005
1.36384e-005
2.29192e-012
4.01311e-012
5.41346e-012
5.66119e-011
4.51871e-010
5.77958e-009
4.12511e-008
4.23779e-007
2.77194e-006
2.28877e-005
0.000134018
0.000887507
0.00453101
0.0238518
0.102835
0.417168
1.38176
4.02888
9.87806
21.1456
38.866
62.3339
89.2642
117.017
143.863
169.819
193.603
215.76
235.298
251.68
265.641
276.702
284.694
290.857
296.534
301.044
302.872
301.835
298.867
295.132
291.485
288.377
285.757
283.576
281.538
278.085
270.359
251.124
196.341
91.1724
18.443
3.79004
0.794874
0.151592
0.0334109
0.00742495
0.00149132
0.000376613
7.9909e-005
1.68691e-005
1.87521e-012
1.83509e-012
2.66861e-012
5.625e-011
4.26379e-010
5.58111e-009
3.90496e-008
4.07925e-007
2.6307e-006
2.19804e-005
0.000127531
0.000851466
0.00432586
0.0229027
0.0986527
0.402608
1.33744
3.9175
9.63486
20.7072
38.197
61.4526
88.2234
115.959
142.91
169.022
192.97
215.413
235.258
251.749
265.769
277.09
285.384
291.707
297.451
302.095
304.171
303.331
300.389
296.429
292.434
289.157
286.449
284.051
281.88
278.622
271.512
253.862
203.706
101.276
21.4766
4.45697
0.925768
0.174352
0.0409186
0.00847413
0.00183388
0.000444398
9.66105e-005
2.06436e-005
2.94491e-012
5.1063e-012
5.25027e-012
5.35999e-011
4.0326e-010
5.40424e-009
3.7093e-008
3.94423e-007
2.51201e-006
2.12541e-005
0.00012247
0.000824837
0.00418003
0.0222657
0.0959263
0.393255
1.3098
3.85047
9.49601
20.4607
37.8372
61.0057
87.733
115.4
142.209
168.201
192.001
214.25
233.981
250.54
264.694
276.112
284.551
291.177
297.324
302.456
305.081
304.761
302.237
298.571
294.546
290.696
287.423
284.816
282.554
279.298
272.485
256.047
210.204
111.086
25.013
5.20823
1.05729
0.201427
0.0488031
0.00961721
0.00223155
0.000513894
0.000116298
2.44318e-005
1.09703e-012
2.36105e-012
2.82189e-012
5.34753e-011
3.80141e-010
5.23298e-009
3.51614e-008
3.80872e-007
2.38986e-006
2.04843e-005
0.000116921
0.000794379
0.00400579
0.0214635
0.0923649
0.380787
1.27163
3.75416
9.28464
20.077
37.2482
60.225
86.797
114.431
141.329
167.435
191.378
213.884
233.892
250.524
264.69
276.373
285.155
292.006
298.318
303.705
306.706
306.727
304.364
300.595
296.366
292.357
288.838
285.855
283.311
280.043
273.585
258.355
216.404
120.68
29.0909
6.05755
1.19547
0.235424
0.0568894
0.0110047
0.00267889
0.000593237
0.000139587
2.88034e-005
1.74328e-012
3.94573e-012
3.90707e-012
5.10373e-011
3.5964e-010
5.0767e-009
3.33988e-008
3.68881e-007
2.28251e-006
1.98315e-005
0.0001123
0.000770032
0.0038707
0.0208685
0.0897958
0.37189
1.24507
3.68908
9.14844
19.8333
36.8895
59.7764
86.3091
113.888
140.667
166.681
190.496
212.838
232.742
249.436
263.751
275.532
284.48
291.661
298.394
304.291
307.864
308.43
306.466
302.916
298.644
294.199
290.172
286.904
284.173
280.83
274.577
260.332
221.889
129.818
33.632
6.96954
1.33964
0.276115
0.0646832
0.0126447
0.00314242
0.000680703
0.000165109
3.33781e-005
1.27251e-012
2.41039e-012
3.33917e-012
5.06604e-011
3.39075e-010
4.92853e-009
3.16939e-008
3.57202e-007
2.17581e-006
1.9171e-005
0.000107497
0.000743959
0.00372078
0.0201813
0.0867282
0.361087
1.21184
3.60491
8.96305
19.4948
36.3672
59.0812
85.466
113.001
139.848
165.94
189.885
212.452
232.604
249.354
263.629
275.638
284.912
292.313
299.223
305.376
309.313
310.203
308.397
304.766
300.363
295.843
291.569
287.951
284.972
281.585
275.599
262.323
227.002
138.688
38.6973
7.95798
1.50266
0.324861
0.0726215
0.0146739
0.00363172
0.000784463
0.000193668
3.87519e-005
1.07474e-012
3.49826e-012
3.68434e-012
4.88084e-011
3.20618e-010
4.79144e-009
3.0115e-008
3.46626e-007
2.07939e-006
1.85895e-005
0.000103317
0.000721944
0.00359712
0.0196329
0.0843407
0.352744
1.18672
3.54271
8.83164
19.2578
36.0153
58.6375
84.9849
112.474
139.227
165.255
189.084
211.509
231.564
248.372
262.795
274.879
284.292
291.966
299.195
305.716
310.063
311.325
309.777
306.265
301.805
297.083
292.576
288.787
285.696
282.298
276.53
264.06
231.492
147.087
44.1246
8.9792
1.68418
0.378636
0.0805738
0.0170164
0.00412372
0.000900296
0.000223702
4.45108e-005
1.22047e-012
3.24202e-012
3.41409e-012
4.85302e-011
3.02539e-010
4.66268e-009
2.86048e-008
3.36504e-007
1.98554e-006
1.80181e-005
9.91194e-005
0.000699393
0.00346676
0.0190375
0.0816714
0.343286
1.1575
3.46845
8.66759
18.9566
35.5488
58.0149
84.2235
111.662
138.462
164.534
188.485
211.109
231.388
248.237
262.575
274.828
284.497
292.283
299.561
306.197
310.776
312.273
310.876
307.355
302.849
298.131
293.517
289.532
286.301
282.924
277.416
265.732
235.646
155.234
50.0103
10.0687
1.89981
0.437474
0.0893872
0.0197456
0.00465145
0.00103552
0.00025681
5.12282e-005
1.29681e-012
2.60554e-012
3.54095e-012
4.68145e-011
2.86076e-010
4.54299e-009
2.71943e-008
3.27209e-007
1.89924e-006
1.75025e-005
9.53581e-005
0.00067962
0.00335441
0.0185366
0.0794734
0.335538
1.13398
3.40969
8.54235
18.7292
35.2082
57.5816
83.7531
111.152
137.884
163.916
187.76
210.259
230.453
247.361
261.833
274.101
283.789
291.655
299.013
305.806
310.636
312.443
311.373
308.133
303.769
299.044
294.366
290.279
286.944
283.564
278.249
267.192
239.242
162.861
56.1272
11.1823
2.14596
0.496931
0.0989335
0.0226709
0.00519681
0.00118187
0.000291323
5.83745e-005
1.65201e-012
2.85449e-012
5.36338e-012
4.7383e-011
2.69568e-010
4.43108e-009
2.58533e-008
3.184e-007
1.81625e-006
1.70049e-005
9.16633e-005
0.000659954
0.00324004
0.0180157
0.07713
0.327185
1.10807
3.34359
8.396
18.4591
34.7885
57.0206
83.0635
110.408
137.167
163.211
187.177
209.855
230.26
247.222
261.577
273.896
283.629
291.32
298.419
305.081
309.987
312.009
311.226
308.276
304.191
299.712
295.144
290.995
287.545
284.151
279.02
268.553
242.539
170.266
62.6786
12.3879
2.43917
0.55864
0.110177
0.0258691
0.00580681
0.00134692
0.000329658
6.65362e-005
2.07689e-012
8.56174e-013
3.33784e-012
4.57517e-011
2.54907e-010
4.32655e-009
2.45947e-008
3.10242e-007
1.73913e-006
1.65488e-005
8.8288e-005
0.000642262
0.00313842
0.0175606
0.0751188
0.320038
1.08622
3.28855
8.27774
18.2428
34.4621
56.6019
82.607
109.915
136.636
162.644
186.533
209.104
229.449
246.522
261.023
273.22
282.701
290.118
296.924
303.404
308.273
310.464
310.035
307.554
303.919
299.794
295.506
291.487
288.044
284.681
279.719
269.734
245.344
177.097
69.2838
13.6329
2.76722
0.618869
0.122693
0.0291151
0.00645287
0.00151922
0.000369619
7.50522e-005
2.78155e-012
3.61237e-012
5.11806e-012
4.59966e-011
2.40166e-010
4.22893e-009
2.34018e-008
3.02551e-007
1.66547e-006
1.61134e-005
8.50168e-005
0.000624998
0.00303737
0.0171015
0.0730459
0.312605
1.06308
3.22928
8.14624
17.999
34.0821
56.0933
81.9804
109.231
135.979
161.895
186.063
208.734
229.153
246.409
260.995
273.208
282.484
289.422
295.663
301.694
306.266
308.399
308.178
306.08
302.927
299.312
295.452
291.673
288.328
285.062
280.308
270.81
247.922
183.691
76.1751
15.0169
3.14589
0.682052
0.137458
0.0325848
0.00718922
0.00170951
0.000414351
8.46142e-005
2.17335e-012
1.09025e-012
3.22251e-012
4.43074e-011
2.27207e-010
4.13772e-009
2.22788e-008
2.95392e-007
1.59656e-006
1.57103e-005
8.19908e-005
0.000609196
0.00294568
0.0166895
0.0712131
0.306042
1.04289
3.17802
8.03535
17.7949
33.7717
55.6921
81.5407
108.755
135.508
161.306
185.599
208.097
228.159
245.516
260.61
273.068
282.226
288.852
294.642
300.241
304.428
306.268
306.024
304.166
301.407
298.249
294.859
291.444
288.327
285.248
280.739
271.684
250.063
189.627
82.845
16.4725
3.55011
0.744617
0.153532
0.036041
0.0079666
0.00190365
0.000460653
9.44102e-005
3.69428e-012
2.45622e-012
4.08555e-012
4.41336e-011
2.13737e-010
4.05269e-009
2.12159e-008
2.8866e-007
1.53098e-006
1.53278e-005
7.90816e-005
0.000593961
0.00285587
0.0162822
0.0693679
0.299388
1.02209
3.12453
7.91643
17.5734
33.4254
55.2282
80.9686
108.128
134.874
160.621
185.075
207.693
227.815
245.214
260.353
273.044
282.372
288.853
294.25
299.393
303.174
304.611
304.085
302.164
299.58
296.79
293.846
290.823
288.01
285.196
280.993
272.426
252.063
195.314
89.773
18.1691
3.99753
0.813321
0.171944
0.0397834
0.00884979
0.00211752
0.000512587
0.000105334
3.30263e-012
1.17236e-012
3.46263e-012
4.25187e-011
2.02103e-010
3.97289e-009
2.02138e-008
2.82371e-007
1.46937e-006
1.49713e-005
7.63689e-005
0.000579854
0.00277323
0.01591
0.0677018
0.29338
1.0035
3.07701
7.81301
17.3818
33.1323
54.8468
80.5476
107.677
134.421
160.165
184.542
207.068
227.097
244.546
259.91
272.756
282.189
288.676
293.861
298.671
302.083
303.082
302.148
300.015
297.46
294.923
292.397
289.815
287.389
284.922
281.069
272.974
253.695
200.297
96.3958
20.0282
4.45061
0.883395
0.191113
0.0435231
0.00976175
0.00233284
0.000565559
0.000116347
3.39881e-012
2.6463e-012
5.5451e-012
4.20496e-011
1.90381e-010
3.89833e-009
1.92656e-008
2.76464e-007
1.41083e-006
1.46342e-005
7.37721e-005
0.000566353
0.00269304
0.0155467
0.0660507
0.287393
0.984701
3.02848
7.70486
17.1794
32.8149
54.4212
80.0231
107.098
133.815
159.518
184.012
206.653
226.8
244.308
259.647
272.671
282.314
288.765
293.656
298.058
301.067
301.603
300.212
297.781
295.176
292.838
290.683
288.528
286.515
284.44
280.991
273.431
255.302
205.176
103.142
22.2185
4.93796
0.963448
0.212465
0.0476842
0.0107879
0.00257219
0.000625008
0.000128645
2.60473e-012
1.26163e-012
3.7434e-012
4.12093e-011
1.79855e-010
3.82858e-009
1.83709e-008
2.70932e-007
1.35569e-006
1.43186e-005
7.13389e-005
0.000553754
0.00261857
0.0152107
0.0645382
0.281905
0.967622
2.98457
7.60882
17.0005
32.5397
54.0608
79.6226
106.672
133.397
159.118
183.522
206.073
226.163
243.737
259.276
272.4
282.074
288.502
293.2
297.288
299.934
300.03
298.201
295.503
292.845
290.667
288.845
287.1
285.5
283.823
280.779
273.717
256.559
209.344
109.359
24.5411
5.4133
1.04605
0.23385
0.0518421
0.0118185
0.00281031
0.000684435
0.000140839
2.78905e-012
3.44151e-012
5.44017e-012
4.08228e-011
1.69268e-010
3.76325e-009
1.75239e-008
2.65736e-007
1.30329e-006
1.40207e-005
6.90137e-005
0.000541746
0.00254669
0.0148854
0.0630539
0.276495
0.950562
2.94033
7.50996
16.8147
32.2472
53.6682
79.1392
106.135
132.818
158.504
183.006
205.65
225.866
243.526
259.04
272.274
282.095
288.488
292.937
296.653
298.916
298.581
296.334
293.369
290.65
288.609
287.071
285.685
284.461
283.159
280.511
273.976
257.869
213.524
115.713
27.2032
5.92236
1.1424
0.257475
0.0565652
0.0129781
0.00307835
0.000751446
0.000154559
2.96248e-012
2.17273e-012
4.1642e-012
4.03095e-011
1.59947e-010
3.70216e-009
1.67241e-008
2.60863e-007
1.25388e-006
1.3741e-005
6.6829e-005
0.000530485
0.00247955
0.014582
0.0616819
0.271487
0.934905
2.89985
7.42108
16.6483
31.9899
53.3296
78.7608
105.734
132.435
158.149
182.559
205.119
225.308
243.043
258.735
272.043
281.882
288.267
292.574
296.046
298.008
297.327
294.725
291.526
288.726
286.763
285.446
284.367
283.472
282.501
280.194
274.103
258.814
216.919
121.413
29.9235
6.40694
1.24138
0.280336
0.0612321
0.0141114
0.00334006
0.000816898
0.000167878
3.93327e-012
4.10248e-012
5.97384e-012
3.98571e-011
1.50649e-010
3.6445e-009
1.59661e-008
2.56282e-007
1.20687e-006
1.34769e-005
6.47411e-005
0.000519772
0.00241488
0.0142897
0.060342
0.26658
0.919355
2.85934
7.33029
16.4768
31.7191
52.9655
78.3129
105.234
131.883
157.557
182.064
204.701
225
242.823
258.486
271.876
281.856
288.263
292.428
295.668
297.382
296.426
293.525
290.083
287.157
285.207
284.033
283.183
282.558
281.87
279.877
274.247
259.883
220.469
127.354
32.9952
6.93779
1.35765
0.305796
0.0666403
0.0153987
0.00363958
0.000891599
0.000183066
3.26004e-012
2.73089e-012
4.91793e-012
3.93988e-011
1.42855e-010
3.59089e-009
1.52506e-008
2.51981e-007
1.16252e-006
1.32285e-005
6.27773e-005
0.000509696
0.00235433
0.0140158
0.059098
0.262015
0.905026
2.82212
7.24829
16.3226
31.4797
52.649
77.9575
104.858
131.533
157.244
181.656
204.216
224.504
242.393
258.202
271.639
281.632
288.082
292.237
295.417
297.009
295.881
292.743
289.049
285.929
283.899
282.787
282.104
281.697
281.244
279.509
274.245
260.555
223.161
132.511
36.0024
7.43991
1.47342
0.329768
0.0718545
0.0166183
0.00392454
0.000962463
0.000197406
3.82959e-012
4.95361e-012
6.16315e-012
3.88767e-011
1.34109e-010
3.54007e-009
1.45716e-008
2.47933e-007
1.12025e-006
1.29937e-005
6.08969e-005
0.00050011
0.00229595
0.0137521
0.0578836
0.257547
0.890794
2.78488
7.16451
16.1637
31.2277
52.3095
77.5403
104.39
131.006
156.677
181.178
203.804
224.197
242.169
257.928
271.414
281.562
288.127
292.31
295.479
297.034
295.822
292.507
288.53
285.112
282.88
281.718
281.117
280.873
280.623
279.145
274.293
261.429
226.191
138.105
39.3796
8.01393
1.60901
0.357376
0.078001
0.0180371
0.00425814
0.00104511
0.000214119
2.8049e-012
3.91516e-012
4.66297e-012
3.84503e-011
1.27071e-010
3.49298e-009
1.39308e-008
2.44129e-007
1.08042e-006
1.27727e-005
5.913e-005
0.000491084
0.00224131
0.0135048
0.0567561
0.25339
0.877704
2.75073
7.08911
16.0213
31.0059
52.0152
77.2087
104.04
130.688
156.397
180.806
203.369
223.757
241.774
257.642
271.166
281.365
288.06
292.382
295.701
297.369
296.205
292.832
288.61
284.828
282.252
280.892
280.26
280.105
280.01
278.738
274.2
261.889
228.282
142.719
42.5304
8.54972
1.73804
0.382656
0.0836858
0.0193335
0.00456362
0.00112058
0.000229309
4.4445e-012
5.64565e-012
6.72609e-012
3.80477e-011
1.19047e-010
3.44801e-009
1.33213e-008
2.40544e-007
1.04232e-006
1.25635e-005
5.74313e-005
0.000482479
0.00218842
0.0132662
0.0556507
0.249305
0.864622
2.71633
7.01141
15.8733
30.7702
51.697
76.8178
103.6
130.184
155.852
180.348
202.967
223.443
241.527
257.327
270.886
281.263
288.153
292.639
296.142
298.026
297.031
293.716
289.311
285.15
282.134
280.433
279.628
279.458
279.459
278.388
274.216
262.642
230.914
148.008
46.1296
9.18764
1.89147
0.413069
0.0905839
0.0209005
0.00493357
0.00121175
0.000247629
2.65038e-012
4.49261e-012
5.4984e-012
3.77704e-011
1.13286e-010
3.40628e-009
1.27476e-008
2.37174e-007
1.00651e-006
1.23666e-005
5.58405e-005
0.000474388
0.00213912
0.013043
0.0546301
0.245527
0.852695
2.68511
6.94236
15.7425
30.5658
51.4248
76.5105
103.276
129.898
155.6
180.011
202.578
223.05
241.158
257.038
270.63
281.066
288.102
292.785
296.557
298.76
298.045
294.904
290.44
285.983
282.522
280.386
279.287
278.992
279.004
278.048
274.108
262.97
232.528
152.064
49.2925
9.76507
2.03009
0.43965
0.0966278
0.02226
0.00525465
0.0012907
0.00026341
3.25076e-012
5.26335e-012
7.07394e-012
3.7421e-011
1.05886e-010
3.36663e-009
1.21994e-008
2.33989e-007
9.72077e-007
1.21795e-005
5.43005e-005
0.000466635
0.002091
0.012826
0.0536189
0.241776
0.840605
2.65317
6.86989
15.6038
30.3443
51.125
76.1421
102.86
129.417
155.077
179.571
202.185
222.724
240.889
256.702
270.308
280.881
288.076
292.925
296.925
299.458
299.072
296.16
291.735
287.098
283.28
280.721
279.262
278.755
278.703
277.83
274.166
263.674
234.886
157.065
53.0342
10.4879
2.20089
0.473528
0.104337
0.0239971
0.00566471
0.00139137
0.000283481
2.24853e-012
4.06531e-012
5.70471e-012
3.71895e-011
1.0119e-010
3.32946e-009
1.16854e-008
2.30999e-007
9.39895e-007
1.20039e-005
5.28689e-005
0.000459383
0.00204657
0.0126249
0.052697
0.238351
0.82978
2.62476
6.80698
15.4842
30.1569
50.8748
75.8592
102.563
129.16
154.852
179.267
201.838
222.376
240.558
256.442
270.059
280.633
287.896
292.873
297.094
299.936
299.87
297.202
292.897
288.217
284.177
281.273
279.474
278.72
278.541
277.657
274.105
263.921
236.112
160.56
56.0716
11.1148
2.34431
0.501202
0.110594
0.0253943
0.00599421
0.00147205
0.000299484
1.98368e-012
4.86486e-012
7.2511e-012
3.67986e-011
9.42562e-011
3.29439e-009
1.11912e-008
2.28159e-007
9.08663e-007
1.1836e-005
5.14662e-005
0.000452365
0.00200255
0.0124266
0.0517662
0.234886
0.818535
2.59491
6.73893
15.3536
29.9474
50.5906
75.5099
102.167
128.701
154.349
178.845
201.456
222.04
240.276
256.115
269.744
280.416
287.772
292.83
297.171
300.232
300.423
297.964
293.797
289.15
285.015
281.896
279.826
278.838
278.517
277.62
274.25
264.631
238.313
165.273
59.8614
11.9482
2.53237
0.539493
0.11922
0.0273339
0.00645083
0.00158382
0.000321566
2.64502e-012
5.31084e-012
6.33186e-012
3.65778e-011
9.0233e-011
3.26143e-009
1.07314e-008
2.25504e-007
8.79784e-007
1.16795e-005
5.01809e-005
0.000445876
0.00196265
0.012246
0.0509373
0.231797
0.808771
2.56922
6.68203
15.2451
29.7769
50.3624
75.2518
101.897
128.47
154.148
178.574
201.151
221.736
239.985
255.893
269.542
280.208
287.586
292.681
297.109
300.323
300.699
298.408
294.383
289.823
285.678
282.443
280.194
279.022
278.56
277.592
274.245
264.825
239.222
168.201
62.6572
12.6226
2.675
0.567768
0.125479
0.0287279
0.00677785
0.00166355
0.000337253
2.61714e-012
5.13209e-012
7.18112e-012
3.62553e-011
8.38297e-011
3.23004e-009
1.02842e-008
2.2296e-007
8.51297e-007
1.15279e-005
4.88942e-005
0.000439479
0.00192205
0.0120634
0.0500731
0.228571
0.79822
2.54109
6.6176
15.121
29.5774
50.0911
74.9185
101.518
128.029
153.668
178.163
200.772
221.4
239.703
255.574
269.239
279.997
287.443
292.557
297.003
300.302
300.806
298.644
294.738
290.269
286.162
282.894
280.537
279.23
278.661
277.67
274.475
265.583
241.386
172.719
66.4669
13.5848
2.88343
0.611653
0.135218
0.0309204
0.00729193
0.00178912
0.0003618
2.40323e-012
6.18074e-012
6.57471e-012
3.59763e-011
8.04025e-011
3.20077e-009
9.8745e-009
2.20606e-007
8.25507e-007
1.13888e-005
4.77474e-005
0.000433704
0.00188648
0.0119024
0.0493342
0.225808
0.789504
2.5181
6.5667
15.0235
29.4239
49.8851
74.6852
101.275
127.823
153.492
177.921
200.505
221.144
239.459
255.383
269.062
279.811
287.26
292.36
296.809
300.156
300.741
298.677
294.889
290.531
286.489
283.221
280.811
279.417
278.759
277.706
274.499
265.72
242.015
175.124
68.9973
14.2802
3.02048
0.639337
0.141183
0.0322444
0.0075998
0.00186369
0.000376379
1.85647e-012
5.75598e-012
6.82457e-012
3.55723e-011
7.45842e-011
3.17256e-009
9.46713e-009
2.1831e-007
7.99268e-007
1.12507e-005
4.65535e-005
0.000427811
0.00184859
0.0117322
0.048522
0.222771
0.779488
2.4913
6.50507
14.9047
29.2323
49.6239
74.3651
100.91
127.4
153.034
177.518
200.128
220.81
239.179
255.061
268.74
279.568
287.078
292.174
296.595
299.957
300.596
298.6
294.897
290.627
286.662
283.435
281.011
279.566
278.861
277.818
274.778
266.535
244.214
179.542
72.8718
15.3841
3.25739
0.690305
0.152385
0.0347689
0.00818966
0.00200762
0.000404158
2.01861e-012
5.32427e-012
6.82306e-012
3.53478e-011
7.19652e-011
3.14671e-009
9.10533e-009
2.16234e-007
7.76517e-007
1.11282e-005
4.55448e-005
0.000422731
0.00181735
0.0115906
0.0478732
0.220336
0.771836
2.47104
6.46025
14.8184
29.096
49.4405
74.1567
100.695
127.218
152.879
177.306
199.899
220.601
238.975
254.88
268.551
279.361
286.865
291.93
296.323
299.69
300.354
298.394
294.75
290.557
286.667
283.492
281.094
279.644
278.916
277.849
274.796
266.6
244.578
181.456
75.0946
16.0562
3.38236
0.715321
0.15762
0.0359155
0.00845232
0.00207039
0.000416439
1.79035e-012
6.42169e-012
7.04727e-012
3.51919e-011
6.64635e-011
3.12123e-009
8.72856e-009
2.14135e-007
7.51887e-007
1.10004e-005
4.44151e-005
0.000417209
0.00178131
0.0114294
0.0470967
0.217433
0.762178
2.44517
6.40054
14.7032
28.9101
49.1868
73.847
100.341
126.811
152.436
176.912
199.526
220.257
238.675
254.534
268.182
279.041
286.588
291.647
296.012
299.385
300.08
298.141
294.515
290.348
286.511
283.404
281.055
279.633
278.933
277.936
275.103
267.495
246.887
185.87
79.0811
17.3304
3.6599
0.775716
0.170853
0.0388998
0.00914853
0.00224036
0.000448722
1.46677e-012
6.72496e-012
7.60004e-012
3.47198e-011
6.4274e-011
3.09872e-009
8.41773e-009
2.12334e-007
7.32422e-007
1.08948e-005
4.35551e-005
0.000412844
0.00175469
0.011308
0.0465427
0.215339
0.755647
2.42776
6.36207
14.6285
28.7916
49.0265
73.6632
100.151
126.65
152.296
176.735
199.343
220.093
238.503
254.365
267.979
278.783
286.294
291.312
295.651
299.031
299.741
297.802
294.176
290.028
286.23
283.175
280.895
279.537
278.888
277.932
275.124
267.529
247.057
187.354
80.9366
17.9171
3.7608
0.794957
0.174663
0.0396988
0.00932444
0.00228063
0.000456887
1.57273e-012
6.55632e-012
7.47879e-012
3.47428e-011
5.89741e-011
3.07501e-009
8.05613e-009
2.10366e-007
7.08425e-007
1.07733e-005
4.24497e-005
0.000407529
0.00171942
0.0111515
0.0457823
0.212506
0.746144
2.40234
6.30329
14.5154
28.6088
48.7767
73.3584
99.8011
126.254
151.866
176.354
198.988
219.754
238.2
254.026
267.603
278.42
285.943
290.954
295.274
298.662
299.395
297.445
293.78
289.602
285.82
282.822
280.617
279.343
278.792
277.976
275.454
268.522
249.525
191.854
85.1294
19.4161
4.09664
0.868623
0.190832
0.043353
0.0101778
0.00248961
0.000495751
7.30936e-013
5.86599e-012
8.07392e-012
3.43604e-011
5.70273e-011
3.05597e-009
7.81059e-009
2.08865e-007
6.93076e-007
1.06863e-005
4.17686e-005
0.000403962
0.00169812
0.0110523
0.0453339
0.210784
0.740842
2.38799
6.27157
14.4527
28.5072
48.6348
73.1878
99.6258
126.108
151.75
176.229
198.873
219.66
238.091
253.908
267.451
278.21
285.69
290.651
294.928
298.295
299.006
297.002
293.258
289.036
285.292
282.359
280.251
279.094
278.658
277.944
275.491
268.539
249.535
192.952
86.5496
19.8237
4.1539
0.877355
0.192106
0.0435326
0.0101999
0.00248992
0.000496995
7.59212e-013
5.99137e-012
7.33333e-012
3.42221e-011
5.18876e-011
3.03304e-009
7.43158e-009
2.06933e-007
6.67995e-007
1.05655e-005
4.06262e-005
0.000398638
0.0016621
0.0108952
0.0445647
0.207941
0.731218
2.36227
6.21101
14.3334
28.3061
48.3542
72.8521
99.2536
125.718
151.332
175.852
198.517
219.312
237.784
253.592
267.123
277.913
285.412
290.355
294.588
297.922
298.586
296.468
292.535
288.134
284.433
281.668
279.74
278.756
278.502
278.016
275.941
269.763
252.36
197.772
91.1672
21.6527
4.57459
0.970404
0.212659
0.0482034
0.0112954
0.00276001
0.000545808
1.30722e-012
5.26079e-012
8.46246e-012
3.39542e-011
5.08212e-011
2.99202e-009
7.07088e-009
2.03818e-007
6.43495e-007
1.0391e-005
3.94657e-005
0.000391607
0.00162361
0.0107001
0.0437148
0.204511
0.72118
2.33429
6.15322
14.2255
28.1657
48.1964
72.7081
99.0988
125.626
151.195
175.68
198.361
219.191
237.701
253.581
267.14
277.914
285.395
290.246
294.346
297.582
298.128
295.782
291.606
286.829
282.338
278.81
276.407
275.203
274.801
274.091
271.67
265.118
248.272
197.178
92.6178
22.0011
4.62062
0.968569
0.209542
0.0469674
0.0109057
0.00263759
0.00068742
1.61273e-012
5.63589e-012
6.2526e-012
3.2643e-011
4.6247e-011
2.92496e-009
7.12787e-009
2.00406e-007
6.49479e-007
1.02936e-005
3.98517e-005
0.000391188
0.0016411
0.0107669
0.0442548
0.206569
0.729251
2.35911
6.21608
14.3575
28.3841
48.5067
73.1106
99.5309
126.034
151.62
176.083
198.676
219.371
237.758
253.499
266.918
277.509
284.742
289.416
293.446
296.65