/*--------------------------------*- C++ -*----------------------------------*\
| =========                 |                                                 |
| \\      /  F ield         | OpenFOAM: The Open Source CFD Toolbox           |
|  \\    /   O peration     | Version:  5.x                                   |
|   \\  /    A nd           | Web:      www.OpenFOAM.org                      |
|    \\/     M anipulation  |                                                 |
\*---------------------------------------------------------------------------*/
/*   Windows 32 and 64 bit porting by blueCAPE: http://www.bluecape.com.pt   *\
|  Based on Windows porting (2.0.x v4) by Symscape: http://www.symscape.com   |
\*---------------------------------------------------------------------------*/
FoamFile
{
    version     2.0;
    format      ascii;
    class       surfaceScalarField;
    location    "0.003";
    object      phi;
}
// * * * * * * * * * * * * * * * * * * * * * * * * * * * * * * * * * * * * * //

dimensions      [1 0 -1 0 0 0 0];

internalField   nonuniform List<scalar> 
19740
(
3.43319e-014
6.03073e-013
2.86056e-014
-8.74856e-013
8.45331e-013
2.13163e-013
9.05702e-012
-8.95284e-013
9.75771e-011
-7.40297e-012
8.50659e-010
-7.57838e-011
7.65036e-009
-5.59184e-010
5.78914e-008
-4.42511e-009
4.33465e-007
-2.84837e-008
2.79814e-006
-1.83387e-007
1.72854e-005
-9.99162e-007
9.34e-005
-5.13731e-006
0.000468748
-2.25068e-005
0.00206797
-8.83923e-005
0.0081789
-0.000279355
0.028227
-0.00110775
0.0816972
-0.00286944
0.199917
-0.00626796
0.416203
-0.0103663
0.740735
-0.0148692
1.12618
-0.0150728
1.50316
-0.00954067
1.82215
-0.00198359
2.06191
-0.00338557
2.24184
0.0046883
2.38506
0.00259856
2.44452
0.00378588
2.45891
0.00486759
2.49703
0.0054059
2.56129
0.0161805
2.58269
-0.00411076
2.56922
-0.019629
2.56184
-0.0301285
2.53815
-0.0347302
2.393
-0.0744465
2.14021
-0.06175
1.94344
-0.0412211
1.81153
-0.0302481
1.7419
-0.0244874
1.71752
-0.0269593
1.69194
-0.0144454
1.62283
-0.00702026
1.63134
0.00681829
1.64564
0.0187062
1.61811
0.0324368
1.50271
0.0654025
1.16791
0.108498
0.389911
-0.168111
0.0952741
0.216002
0.0132722
0.0160228
0.00199691
0.00281064
0.000362481
0.000687116
5.75894e-005
-3.94854e-005
1.1312e-005
3.21926e-005
2.10054e-006
-7.66066e-006
4.83679e-007
2.47729e-006
9.75293e-008
-5.08599e-007
1.88339e-008
9.72814e-008
5.83702e-009
-1.45717e-009
-2.47293e-009
3.35149e-014
2.16716e-013
3.06578e-014
-1.70708e-012
7.79512e-013
5.87974e-013
8.02657e-012
-1.22746e-012
8.6685e-011
-1.27631e-011
7.41915e-010
-1.23499e-010
6.68699e-009
-8.78917e-010
4.99249e-008
-6.95039e-009
3.74671e-007
-4.32524e-008
2.39854e-006
-2.76519e-007
1.48576e-005
-1.4599e-006
8.00343e-005
-7.40718e-006
0.000403249
-3.13535e-005
0.0017859
-0.000122101
0.00711549
-0.000361261
0.0247168
-0.00148741
0.0721192
-0.00381168
0.178112
-0.00852897
0.374203
-0.0135604
0.67295
-0.0204731
1.03409
-0.0215831
1.3941
-0.014344
1.70427
-0.0032093
1.94176
-0.00720602
2.12234
0.0105333
2.26493
-0.00113842
2.32963
0.000965616
2.35732
0.00217561
2.40655
0.0174333
2.46751
0.0157416
2.48576
-0.0116147
2.4676
-0.0433131
2.45137
-0.0637467
2.42346
-0.0663239
2.27178
-0.12409
2.02423
-0.101248
1.82883
-0.0564057
1.68798
-0.035437
1.61367
-0.026793
1.58177
-0.0245074
1.54285
-0.000949246
1.47245
0.00423735
1.45339
0.0395334
1.42197
0.0558706
1.36765
0.0662083
1.27388
0.0904996
1.06904
0.109143
0.452316
-0.267126
0.113362
0.274609
0.0181034
0.0257259
0.00320424
0.00638721
0.000563523
0.000954736
8.83828e-005
5.83589e-005
1.91126e-005
3.48376e-005
2.94952e-006
-4.98772e-006
8.81584e-007
3.16327e-006
1.03957e-007
-6.91382e-007
4.05965e-008
1.82498e-007
6.04171e-009
-2.45906e-008
4.45864e-009
3.06864e-014
4.16556e-013
2.49852e-014
-1.52678e-012
7.26147e-013
-1.74083e-013
7.63113e-012
-2.02327e-012
8.29821e-011
-1.80105e-011
7.10427e-010
-1.73961e-010
6.43838e-009
-1.24391e-009
4.81617e-008
-9.91898e-009
3.63179e-007
-6.2314e-008
2.33152e-006
-4.02017e-007
1.45018e-005
-2.15221e-006
7.83508e-005
-1.105e-005
0.000396082
-4.76621e-005
0.00175741
-0.000189096
0.00700655
-0.000571738
0.024422
-0.00234058
0.0714023
-0.00606185
0.176579
-0.0136789
0.371094
-0.0220592
0.667329
-0.0333366
1.02437
-0.0353051
1.37817
-0.023343
1.68006
-0.00618289
1.91182
-0.00879186
2.08133
0.015721
2.21398
0.0011948
2.29172
0.00310928
2.30986
0.00471609
2.32109
0.0208758
2.36515
0.0264863
2.39341
-0.00487801
2.37787
-0.0476096
2.35567
-0.0793448
2.3345
-0.0705015
2.22941
-0.130506
2.01084
-0.128149
1.82805
-0.0859493
1.68051
-0.0583396
1.5884
-0.0437444
1.53991
-0.0385001
1.51203
-0.0192313
1.44601
-0.00665747
1.43519
0.0341387
1.4293
0.0590702
1.39459
0.0769393
1.30221
0.107408
1.12013
0.114568
0.55737
-0.222081
0.12954
0.281046
0.0223775
0.0412004
0.00417995
0.0112975
0.000723894
0.00129735
0.000125395
0.000238847
2.4255e-005
2.43893e-005
4.26285e-006
5.71427e-006
1.07604e-006
2.24e-006
1.55438e-007
-3.6484e-007
5.48742e-008
1.99895e-007
6.9544e-009
-3.07714e-008
1.08048e-008
2.77851e-014
1.10667e-012
2.38099e-014
-6.386e-013
6.7886e-013
-1.1724e-013
6.8542e-012
-2.4194e-012
7.47585e-011
-2.12594e-011
6.2913e-010
-2.05163e-010
5.71997e-009
-1.4472e-009
4.223e-008
-1.15677e-008
3.1927e-007
-7.17552e-008
2.03194e-006
-4.62718e-007
1.26694e-005
-2.45269e-006
6.8185e-005
-1.25594e-005
0.000345751
-5.36617e-005
0.00153805
-0.00021354
0.00617261
-0.00063315
0.0216322
-0.00262224
0.0636869
-0.00679385
0.158717
-0.015562
0.336245
-0.0249731
0.610128
-0.0384635
0.945279
-0.0416914
1.28312
-0.0285844
1.57625
-0.00905611
1.80643
-0.00892373
1.97368
0.0109168
2.09833
0.00039498
2.19917
0.00770492
2.23411
0.00695547
2.23275
0.0241679
2.25764
0.024177
2.29223
0.00415777
2.28567
-0.0428729
2.25916
-0.0793564
2.22443
-0.0551338
2.111
-0.116148
1.87802
-0.129708
1.68353
-0.0925367
1.54755
-0.0670548
1.47141
-0.0529823
1.42512
-0.0396785
1.38858
-0.022543
1.32816
-0.0115935
1.31004
0.0321724
1.2992
0.0637561
1.27331
0.0828147
1.20866
0.109983
1.09813
0.100243
0.728302
-0.184432
0.151065
0.263599
0.0282533
0.0601543
0.00552262
0.0168153
0.000952407
0.00180122
0.000174573
0.000434834
3.18371e-005
2.05932e-005
6.437e-006
1.81969e-005
1.33074e-006
6.00275e-007
2.42064e-007
2.79481e-007
7.10727e-008
1.68088e-007
1.10264e-008
-1.91725e-008
1.47193e-008
2.74806e-014
2.72671e-013
2.20934e-014
-4.08562e-014
6.21993e-013
-7.56728e-013
6.41118e-012
-2.15739e-012
7.06736e-011
-2.37721e-011
5.93371e-010
-2.37226e-010
5.43604e-009
-1.67401e-009
4.01583e-008
-1.34747e-008
3.05561e-007
-8.39633e-008
1.9495e-006
-5.4524e-007
1.2221e-005
-2.91539e-006
6.59902e-005
-1.5056e-005
0.000336112
-6.51393e-005
0.00149885
-0.000262696
0.00602496
-0.000790667
0.0211956
-0.00326153
0.062578
-0.00852646
0.156312
-0.0196902
0.331499
-0.0319792
0.602048
-0.049385
0.932783
-0.0541983
1.26462
-0.0373688
1.55033
-0.0127796
1.77296
-0.00893942
1.93375
0.00995186
2.05422
0.00201523
2.1473
0.0153386
2.17703
0.00786851
2.17252
0.0287505
2.19511
0.0180098
2.2241
0.0134832
2.21219
-0.0297311
2.18229
-0.0675592
2.15202
-0.0423819
2.04268
-0.0975381
1.81096
-0.118726
1.62965
-0.101478
1.50976
-0.0836413
1.43628
-0.061985
1.39254
-0.0440204
1.35942
-0.0302087
1.31069
-0.0305429
1.29645
0.0229657
1.29088
0.0563972
1.2745
0.0826914
1.22537
0.115292
1.11531
0.111101
0.753355
-0.0903807
0.166157
0.202874
0.0341716
0.0865491
0.00681531
0.0220559
0.00118035
0.0026446
0.000227396
0.000593407
4.03911e-005
4.31292e-005
9.01714e-006
2.99378e-005
1.622e-006
-1.11861e-006
3.56175e-007
1.06996e-006
8.35583e-008
7.20672e-008
1.53377e-008
1.36452e-008
1.39093e-008
2.27752e-014
1.01785e-012
1.70367e-014
-4.22773e-013
5.85697e-013
-9.85878e-013
5.81167e-012
-2.28351e-012
6.43664e-011
-2.54996e-011
5.31764e-010
-2.56943e-010
4.89549e-009
-1.79594e-009
3.57131e-008
-1.45041e-008
2.72661e-007
-8.97394e-008
1.72461e-006
-5.83316e-007
1.0839e-005
-3.10586e-006
5.82729e-005
-1.60329e-005
0.000297575
-6.91695e-005
0.00132881
-0.000280029
0.00537272
-0.00083955
0.0189868
-0.00346873
0.0563896
-0.00910035
0.14175
-0.0212426
0.302699
-0.0344709
0.553958
-0.0541809
0.864989
-0.0605534
1.18155
-0.0427331
1.45897
-0.0161616
1.67744
-0.0096429
1.8375
0.00785406
1.96044
0.00333893
2.05401
0.014426
2.08526
0.00709759
2.08746
0.0242009
2.11864
0.0171239
2.15351
0.0140891
2.14419
-0.0199126
2.11396
-0.0541518
2.09104
-0.0376312
1.97743
-0.0693258
1.74474
-0.100413
1.55815
-0.0999778
1.43265
-0.0908742
1.35871
-0.0664839
1.31317
-0.042435
1.28087
-0.0304443
1.23164
-0.0342019
1.21501
0.0147681
1.20774
0.0500081
1.19687
0.0766015
1.16524
0.110224
1.09407
0.101314
0.786554
-0.0434048
0.186059
0.139584
0.0419178
0.120558
0.00827733
0.0271597
0.00146634
0.00386109
0.000285132
0.00069898
5.27655e-005
0.000108649
1.17634e-005
3.38834e-005
2.02283e-006
-2.06458e-007
5.19146e-007
1.78976e-006
1.00831e-007
-8.96595e-009
2.24619e-008
5.344e-008
7.98099e-009
2.44934e-014
6.63469e-013
1.65779e-014
-1.02496e-012
5.34549e-013
-1.12887e-012
5.37692e-012
-3.73301e-012
6.03799e-011
-2.69367e-011
4.96304e-010
-2.76166e-010
4.61104e-009
-1.92642e-009
3.35983e-008
-1.56594e-008
2.58441e-007
-9.71335e-008
1.63727e-006
-6.34906e-007
1.0354e-005
-3.40262e-006
5.58419e-005
-1.76778e-005
0.000286636
-7.70133e-005
0.00128363
-0.000314833
0.00520256
-0.000955938
0.018461
-0.00393636
0.0550184
-0.0104157
0.138731
-0.0245044
0.296765
-0.0401055
0.544019
-0.063432
0.850324
-0.0718203
1.16139
-0.0513829
1.43186
-0.0203377
1.6435
-0.00965682
1.79786
0.00649412
1.91512
0.00646326
2.00296
0.0173367
2.0301
0.00810576
2.02958
0.0260649
2.05668
0.0186939
2.08898
0.0195643
2.08029
-0.0048921
2.05289
-0.0383147
2.03692
-0.0334588
1.94695
-0.0533237
1.73321
-0.0841847
1.55329
-0.101886
1.42929
-0.102946
1.35407
-0.0753796
1.30952
-0.0469314
1.27589
-0.0330615
1.22579
-0.0377384
1.20704
0.009776
1.19943
0.0432303
1.19125
0.0748074
1.16752
0.109846
1.08406
0.117916
0.791795
0.015565
0.204448
0.0744421
0.049847
0.159595
0.00975234
0.0321997
0.00177333
0.0052716
0.000345795
0.000817726
6.83272e-005
0.000206773
1.41398e-005
3.01297e-005
2.56325e-006
3.19942e-006
6.70823e-007
2.10937e-006
1.21262e-007
5.81342e-009
3.06157e-008
8.97509e-008
3.33712e-009
1.57417e-014
3.23297e-013
1.03337e-014
-1.31894e-012
5.03085e-013
-1.44951e-012
4.89687e-012
-4.22684e-012
5.54318e-011
-2.75868e-011
4.48608e-010
-2.87679e-010
4.19647e-009
-1.99079e-009
3.02114e-008
-1.62448e-008
2.33443e-007
-1.00351e-007
1.46652e-006
-6.56813e-007
9.30219e-006
-3.51554e-006
4.99419e-005
-1.82675e-005
0.000256986
-7.9619e-005
0.00115134
-0.000326373
0.00469047
-0.000994651
0.0167074
-0.00408789
0.0500463
-0.0108716
0.126849
-0.0257679
0.272955
-0.0422177
0.503607
-0.0677402
0.792278
-0.0780863
1.08877
-0.056926
1.35086
-0.0239827
1.55824
-0.0106417
1.71132
0.00457651
1.8294
0.00858032
1.91825
0.015732
1.94872
0.00880888
1.95281
0.0254308
1.9847
0.0310537
2.01976
0.0218878
2.01557
0.00116885
1.98962
-0.0271409
1.97279
-0.0308269
1.88514
-0.0430423
1.67319
-0.070773
1.4901
-0.0959308
1.36307
-0.102958
1.29142
-0.0807581
1.24809
-0.0459934
1.21621
-0.0269925
1.17817
-0.0233684
1.14825
0.00538967
1.1393
0.0435486
1.13317
0.0756712
1.11391
0.110784
1.05553
0.114437
0.809031
0.0289358
0.225628
0.00922587
0.0588057
0.202628
0.0113618
0.0375539
0.00212293
0.00674573
0.000416395
0.0010325
8.6611e-005
0.000312908
1.66643e-005
2.45726e-005
3.38092e-006
9.11848e-006
8.164e-007
1.95249e-006
1.53835e-007
1.42921e-007
4.00749e-008
1.1458e-007
2.41683e-009
1.92884e-014
-2.30926e-013
8.7777e-015
-1.74172e-012
4.58543e-013
-1.6378e-012
4.50922e-012
-4.13891e-012
5.17946e-011
-2.79057e-011
4.15913e-010
-2.98296e-010
3.93144e-009
-2.05626e-009
2.82144e-008
-1.68725e-008
2.19815e-007
-1.04427e-007
1.38145e-006
-6.86392e-007
8.82121e-006
-3.6941e-006
4.74854e-005
-1.92848e-005
0.000245702
-8.47687e-005
0.00110408
-0.000349775
0.00451164
-0.00107976
0.0161382
-0.00442206
0.048531
-0.0118657
0.123459
-0.0282921
0.266264
-0.0467366
0.492407
-0.0754864
0.776054
-0.0881879
1.06739
-0.0653806
1.32316
-0.0284261
1.52422
-0.0112177
1.67226
0.00362791
1.78513
0.0107244
1.86885
0.0184524
1.89511
0.012241
1.89724
0.0273597
1.92628
0.0419476
1.96018
0.0262355
1.95569
0.00471079
1.9321
-0.0195637
1.91784
-0.0325048
1.83824
-0.0382781
1.64357
-0.0674169
1.46858
-0.0912767
1.34581
-0.106708
1.27735
-0.0891161
1.2367
-0.0485898
1.20776
-0.0259321
1.17546
-0.0142442
1.13381
0.00931129
1.12396
0.0440149
1.11868
0.0755362
1.10312
0.110972
1.03583
0.124348
0.810828
0.0421662
0.245821
-0.0907346
0.0678335
0.247358
0.0130236
0.043364
0.00249616
0.00817137
0.000496227
0.00142203
0.000105498
0.000397546
1.94547e-005
2.5135e-005
4.43937e-006
1.59343e-005
9.443e-007
1.56445e-006
1.91901e-007
4.12219e-007
4.87704e-008
1.19902e-007
8.18604e-009
1.32012e-014
-1.50102e-013
4.58834e-015
-1.77014e-012
4.33773e-013
-2.05524e-012
4.12088e-012
-4.10605e-012
4.78305e-011
-2.78035e-011
3.78199e-010
-3.03963e-010
3.60668e-009
-2.08089e-009
2.5583e-008
-1.71348e-008
2.00471e-007
-1.05847e-007
1.24974e-006
-6.96475e-007
8.0093e-006
-3.75112e-006
4.29216e-005
-1.95849e-005
0.000222665
-8.63252e-005
0.00100032
-0.000356599
0.00410644
-0.00111099
0.014737
-0.00452512
0.0445149
-0.0122311
0.11373
-0.0292867
0.246513
-0.0487113
0.458383
-0.0792864
0.726331
-0.0940506
1.00395
-0.0708648
1.25122
-0.0322291
1.44799
-0.0120203
1.59405
0.00153517
1.70678
0.0143571
1.79229
0.0173662
1.82215
0.0144743
1.82665
0.0263653
1.85677
0.0507688
1.89247
0.0270386
1.89255
0.0054628
1.86967
-0.0155052
1.85315
-0.0349036
1.77546
-0.0359314
1.58498
-0.0639081
1.41273
-0.0846596
1.28159
-0.0982883
1.21318
-0.0941997
1.1795
-0.0527816
1.15585
-0.0193389
1.1306
-0.00513158
1.08554
0.0152019
1.07507
0.0449715
1.06886
0.0774149
1.05455
0.108275
1.00366
0.11897
0.808159
0.0387602
0.267832
-0.184121
0.0774322
0.292612
0.0148279
0.0495252
0.00290929
0.00965102
0.000591713
0.0020142
0.000124409
0.000441096
2.30008e-005
3.88871e-005
5.60616e-006
2.16744e-005
1.09582e-006
1.4464e-006
2.51182e-007
7.30823e-007
5.79077e-008
1.19518e-007
1.92055e-008
1.56854e-014
2.8777e-013
4.00114e-015
-1.58096e-012
3.96268e-013
-2.15028e-012
3.78118e-012
-3.47011e-012
4.46308e-011
-2.80496e-011
3.49282e-010
-3.08346e-010
3.36998e-009
-2.10324e-009
2.37824e-008
-1.73956e-008
1.88021e-007
-1.07673e-007
1.17102e-006
-7.10517e-007
7.55706e-006
-3.84706e-006
4.05758e-005
-2.01503e-005
0.000211693
-8.95384e-005
0.000953753
-0.000371334
0.00392904
-0.00117384
0.0141593
-0.00475191
0.0429486
-0.012978
0.110165
-0.031186
0.239429
-0.0524637
0.446455
-0.085708
0.709126
-0.103003
0.98176
-0.0789495
1.22338
-0.0368936
1.41426
-0.0119506
1.55578
-0.000343943
1.66344
0.0179312
1.74512
0.0187064
1.77183
0.0177747
1.77467
0.0250373
1.8023
0.0532888
1.8371
0.0290941
1.8361
0.00508188
1.81431
-0.016143
1.79872
-0.0396422
1.7245
-0.035002
1.54373
-0.0648092
1.38229
-0.0834077
1.25882
-0.0956972
1.18974
-0.0986823
1.15938
-0.0623805
1.13724
-0.0175667
1.108
0.00779667
1.06318
0.020274
1.05288
0.0473786
1.04809
0.0785563
1.03097
0.10994
0.975107
0.121648
0.797932
0.0402829
0.289217
-0.24801
0.0869308
0.33078
0.0166955
0.055808
0.00335703
0.0114372
0.000697757
0.00275789
0.000141999
0.000446484
2.74254e-005
6.8718e-005
6.70512e-006
2.51656e-005
1.27611e-006
1.90832e-006
3.13728e-007
1.0302e-006
6.76951e-008
1.28301e-007
3.27455e-008
1.04144e-014
-2.91323e-013
9.64506e-016
-1.86606e-012
3.76779e-013
-2.22133e-012
3.46062e-012
-3.5838e-012
4.13997e-011
-2.80425e-011
3.18942e-010
-3.09428e-010
3.11055e-009
-2.10103e-009
2.16992e-008
-1.74261e-008
1.72765e-007
-1.0785e-007
1.06764e-006
-7.12038e-007
6.91997e-006
-3.86481e-006
3.69947e-005
-2.02418e-005
0.000193561
-9.03412e-005
0.000871492
-0.00037454
0.00360508
-0.00119957
0.0130294
-0.00480863
0.0396788
-0.013271
0.102152
-0.0319304
0.222958
-0.0543761
0.417698
-0.0889472
0.666445
-0.108481
0.926321
-0.0843483
1.15941
-0.0410178
1.34596
-0.0133182
1.48502
-0.00286939
1.59199
0.0200894
1.67519
0.0172869
1.70514
0.0182605
1.70961
0.0226911
1.73736
0.0569256
1.77394
0.0298699
1.77715
0.00402019
1.75699
-0.013077
1.74034
-0.0400638
1.66903
-0.0346884
1.48658
-0.0628838
1.32731
-0.0796084
1.20652
-0.0902546
1.13507
-0.0966773
1.10771
-0.071962
1.09143
-0.0203037
1.06676
0.0127415
1.02088
0.0238516
1.01023
0.0474152
1.00443
0.0806148
0.991588
0.108873
0.942859
0.122519
0.789607
0.047446
0.345232
-0.255708
0.0963249
0.344809
0.0187259
0.0624616
0.00386487
0.0138527
0.000814782
0.00354643
0.000160101
0.000437922
3.3199e-005
0.000112838
7.76802e-006
2.62526e-005
1.50691e-006
3.10519e-006
3.81881e-007
1.26732e-006
7.98912e-008
1.58184e-007
4.63319e-008
1.24969e-014
-1.98064e-013
-7.43329e-016
-1.34381e-012
3.44239e-013
-1.88471e-012
3.16939e-012
-4.04743e-012
3.86436e-011
-2.79012e-011
2.93984e-010
-3.09425e-010
2.90432e-009
-2.09636e-009
2.01208e-008
-1.74389e-008
1.61718e-007
-1.08203e-007
9.97109e-007
-7.15499e-007
6.50889e-006
-3.9051e-006
3.4835e-005
-2.04933e-005
0.000183294
-9.2194e-005
0.000827383
-0.000382895
0.0034357
-0.00124614
0.0124673
-0.0049472
0.0381291
-0.0138302
0.0985627
-0.0333158
0.215769
-0.0575461
0.405478
-0.0941358
0.648754
-0.116386
0.90372
-0.0920382
1.13173
-0.046034
1.31281
-0.0131401
1.44789
-0.00578854
1.54993
0.0231421
1.62985
0.0196278
1.65739
0.0208196
1.66015
0.0230598
1.68556
0.0601009
1.72159
0.034839
1.72506
0.00485065
1.7066
-0.0126464
1.69219
-0.04045
1.62843
-0.0344176
1.4563
-0.0636026
1.30341
-0.0784049
1.1872
-0.0910415
1.11686
-0.0968438
1.08552
-0.0801766
1.06855
-0.0247919
1.04352
0.0186402
0.997821
0.0227235
0.985743
0.0485561
0.979032
0.0836403
0.963189
0.111997
0.913723
0.127595
0.783294
0.063961
0.472395
-0.216254
0.105099
0.328967
0.0209113
0.0704491
0.00442133
0.0171554
0.000932633
0.00424224
0.000178733
0.000452834
3.98182e-005
0.000164284
8.72813e-006
2.59523e-005
1.79019e-006
4.96738e-006
4.45655e-007
1.43307e-006
9.35848e-008
2.13463e-007
5.85135e-008
8.9373e-015
-2.30926e-013
-1.10762e-015
-1.5703e-012
3.2915e-013
-1.82343e-012
2.9026e-012
-4.76597e-012
3.59775e-011
-2.76055e-011
2.69251e-010
-3.07707e-010
2.69361e-009
-2.07698e-009
1.84446e-008
-1.7309e-008
1.4947e-007
-1.07565e-007
9.14598e-007
-7.11118e-007
6.00048e-006
-3.89557e-006
3.19821e-005
-2.04316e-005
0.000168813
-9.24329e-005
0.000761368
-0.000383288
0.00317365
-0.00126681
0.0115467
-0.00496263
0.0354415
-0.0140669
0.0919121
-0.0338477
0.201943
-0.0593445
0.381048
-0.0968066
0.611995
-0.121539
0.855213
-0.0973972
1.07481
-0.0503108
1.25142
-0.0146139
1.38384
-0.00862272
1.48503
0.0253042
1.56573
0.0191851
1.59617
0.0201307
1.60064
0.0206458
1.62558
0.0639439
1.66234
0.0392566
1.66915
0.00507362
1.65272
-0.0148318
1.63842
-0.0412788
1.58056
-0.0344418
1.41662
-0.0631623
1.26637
-0.0751699
1.15089
-0.0899298
1.07773
-0.0936631
1.03999
-0.0818
1.03035
-0.0353915
1.01257
0.0190051
0.962049
0.0267078
0.950164
0.0487822
0.944462
0.085003
0.931118
0.110886
0.88921
0.126467
0.784968
0.0763639
0.51264
-0.161279
0.113478
0.29558
0.0234943
0.0810986
0.00504876
0.0214129
0.00105174
0.00474703
0.00020075
0.000528328
4.70884e-005
0.000214565
9.75178e-006
2.60888e-005
2.14122e-006
7.25767e-006
5.1261e-007
1.56473e-006
1.10499e-007
2.92809e-007
6.92896e-008
1.12549e-014
-7.14095e-013
-4.66727e-015
-1.84741e-012
2.98016e-013
-1.95577e-012
2.65498e-012
-5.18696e-012
3.3627e-011
-2.69376e-011
2.48006e-010
-3.05115e-010
2.5164e-009
-2.05518e-009
1.70842e-008
-1.71569e-008
1.39842e-007
-1.06996e-007
8.52686e-007
-7.07539e-007
5.6349e-006
-3.89769e-006
3.00413e-005
-2.04556e-005
0.000159449
-9.32974e-005
0.000720703
-0.00038688
0.00301612
-0.00130075
0.0110151
-0.00503246
0.0339534
-0.0144848
0.0884092
-0.0348251
0.194861
-0.0620037
0.368875
-0.100938
0.594232
-0.128503
0.832552
-0.104672
1.0475
-0.0555354
1.21914
-0.0146406
1.34789
-0.0117815
1.4447
0.0282583
1.52194
0.0212767
1.54999
0.0227021
1.5535
0.0223635
1.57743
0.0680006
1.61334
0.0472222
1.61954
0.00730355
1.60474
-0.016597
1.59213
-0.0430936
1.5415
-0.0335658
1.38998
-0.0648681
1.24309
-0.0746972
1.13319
-0.0903669
1.062
-0.0920838
1.01975
-0.0816944
1.00386
-0.0417643
0.990686
0.0155617
0.938985
0.0314331
0.92576
0.0523171
0.919924
0.0863493
0.907863
0.109659
0.872275
0.1237
0.783934
0.0850465
0.531542
-0.111298
0.121632
0.253084
0.0264355
0.095086
0.00571277
0.0264273
0.00116397
0.00503062
0.000225946
0.000687662
5.4183e-005
0.000256059
1.08239e-005
2.83729e-005
2.51962e-006
9.66149e-006
5.78042e-007
1.71333e-006
1.2897e-007
3.89686e-007
7.96271e-008
6.89986e-015
-1.84741e-013
-3.49547e-015
-1.48592e-012
2.87257e-013
-1.4504e-012
2.43523e-012
-5.44631e-012
3.14084e-011
-2.62057e-011
2.27655e-010
-3.00689e-010
2.34297e-009
-2.02556e-009
1.57172e-008
-1.69154e-008
1.29854e-007
-1.05841e-007
7.85836e-007
-6.99019e-007
5.22277e-006
-3.86804e-006
2.77351e-005
-2.02724e-005
0.000147714
-9.30854e-005
0.000667057
-0.000385068
0.00280155
-0.00131635
0.0102565
-0.00501646
0.0317213
-0.0146753
0.0828404
-0.0351816
0.183166
-0.0636221
0.347991
-0.103191
0.562434
-0.13327
0.790024
-0.10989
0.996803
-0.0600382
1.16376
-0.0163986
1.28979
-0.0148241
1.38574
0.0294567
1.46313
0.0201041
1.49342
0.0232597
1.49882
0.0218693
1.52242
0.0725646
1.55846
0.0561351
1.56693
0.00834958
1.55361
-0.0214177
1.54157
-0.0457233
1.49798
-0.0353522
1.35199
-0.0666008
1.20727
-0.0744272
1.10025
-0.0901661
1.03004
-0.0867479
0.985367
-0.0765602
0.969022
-0.04863
0.959329
0.00474858
0.908059
0.0393415
0.895935
0.0545176
0.890582
0.0872925
0.882413
0.107758
0.855663
0.119661
0.780448
0.0910738
0.544971
-0.0664382
0.130056
0.203674
0.0297922
0.112834
0.00642683
0.0318257
0.00127785
0.0051588
0.000257073
0.000936708
6.11684e-005
0.000285137
1.21094e-005
3.4055e-005
2.92703e-006
1.19392e-005
6.52099e-007
1.9363e-006
1.50332e-007
4.97817e-007
9.10972e-008
1.02418e-014
-5.82645e-013
-5.77576e-015
-1.45128e-012
2.59783e-013
-1.62181e-012
2.22599e-012
-5.50848e-012
2.94136e-011
-2.58478e-011
2.09707e-010
-2.95847e-010
2.19174e-009
-1.99388e-009
1.45562e-008
-1.66531e-008
1.21548e-007
-1.04703e-007
7.32193e-007
-6.90679e-007
4.90218e-006
-3.8444e-006
2.6019e-005
-2.01355e-005
0.000139322
-9.32396e-005
0.000630262
-0.00038525
0.00265765
-0.00134008
0.00976379
-0.0050375
0.0303226
-0.0149861
0.079497
-0.0358416
0.176337
-0.0658199
0.336114
-0.106535
0.544931
-0.139353
0.767605
-0.116628
0.970039
-0.0654092
1.13257
-0.0167073
1.25511
-0.01798
1.3471
0.0317241
1.42109
0.0215693
1.4489
0.0258365
1.45363
0.0218339
1.47725
0.0749587
1.51263
0.0656373
1.52009
0.00942092
1.50818
-0.0245933
1.49773
-0.0483895
1.45988
-0.0382814
1.32786
-0.0743402
1.18469
-0.0766139
1.07704
-0.0897017
1.00859
-0.0817462
0.966478
-0.0695789
0.945939
-0.0502057
0.932258
-0.00349244
0.884959
0.0393647
0.872533
0.059082
0.866601
0.0900684
0.860405
0.109312
0.838434
0.120803
0.772645
0.101687
0.552852
-0.0199618
0.138329
0.150954
0.0333828
0.134394
0.00713809
0.0371011
0.00138944
0.00525768
0.000292187
0.00125961
6.74923e-005
0.000302045
1.35442e-005
4.34703e-005
3.32194e-006
1.39395e-005
7.29453e-007
2.26479e-006
1.72121e-007
6.10565e-007
1.05071e-007
6.25194e-015
-2.04281e-013
-6.14266e-015
-1.45128e-012
2.51617e-013
-1.64313e-012
2.04374e-012
-5.63816e-012
2.75512e-011
-2.54508e-011
1.9285e-010
-2.89874e-010
2.04746e-009
-1.9579e-009
1.34296e-008
-1.63358e-008
1.13299e-007
-1.03229e-007
6.77343e-007
-6.79278e-007
4.56342e-006
-3.80163e-006
2.41297e-005
-1.98691e-005
0.000129681
-9.26941e-005
0.000586129
-0.000381885
0.00247986
-0.00135073
0.00913155
-0.0050013
0.0284493
-0.0151366
0.07479
-0.0360552
0.166365
-0.0672305
0.318137
-0.108498
0.517285
-0.143683
0.730215
-0.121587
0.924839
-0.0701985
1.08256
-0.0188813
1.20234
-0.02114
1.29341
0.0329582
1.36725
0.0213106
1.39668
0.0267684
1.40297
0.0218201
1.42599
0.0773022
1.46112
0.0734227
1.47094
0.00940265
1.46027
-0.0303059
1.45052
-0.0522192
1.41829
-0.0468397
1.29175
-0.0806694
1.15008
-0.0805698
1.04528
-0.0916953
0.977433
-0.0763997
0.937224
-0.0617144
0.914653
-0.0468753
0.906399
-0.0188914
0.857717
0.0373977
0.845998
0.0630305
0.839949
0.0943809
0.835496
0.113433
0.817915
0.12634
0.761017
0.11604
0.556584
0.0157598
0.146996
0.0994511
0.03728
0.159605
0.00787086
0.0418184
0.00151336
0.00550147
0.000332369
0.00162759
7.37583e-005
0.00031185
1.52737e-005
5.63183e-005
3.72615e-006
1.56832e-005
8.19465e-007
2.71554e-006
1.95967e-007
7.26716e-007
1.22506e-007
7.92508e-015
2.30926e-014
-7.83575e-015
-1.50102e-012
2.29626e-013
-1.65379e-012
1.86821e-012
-5.7625e-012
2.58578e-011
-2.54277e-011
1.77746e-010
-2.83609e-010
1.91873e-009
-1.92125e-009
1.24441e-008
-1.60022e-008
1.06172e-007
-1.01759e-007
6.3122e-007
-6.67808e-007
4.28461e-006
-3.76242e-006
2.26279e-005
-1.96297e-005
0.000122245
-9.23631e-005
0.000553258
-0.000379787
0.00235001
-0.00136615
0.00868128
-0.0049908
0.0271543
-0.0153644
0.0716507
-0.0364695
0.159885
-0.0690273
0.306733
-0.111222
0.500293
-0.148954
0.708288
-0.127753
0.898764
-0.0757092
1.05248
-0.0195498
1.16898
-0.0244424
1.25639
0.0353978
1.3271
0.0230491
1.35436
0.0281978
1.35985
0.0199438
1.38312
0.0770213
1.41763
0.0793043
1.42647
0.00897481
1.41674
-0.0362242
1.40757
-0.0564954
1.37723
-0.0574027
1.26133
-0.0936981
1.12419
-0.0883376
1.01798
-0.0913758
0.953167
-0.0741897
0.915623
-0.0566596
0.893436
-0.0430483
0.876919
-0.0204663
0.834972
0.0297885
0.822868
0.0685436
0.816129
0.100263
0.811477
0.120105
0.795719
0.135467
0.74379
0.131925
0.558572
0.0396884
0.155506
0.0508956
0.0412212
0.188144
0.00857
0.0455809
0.00164463
0.0060529
0.000373465
0.00200026
7.96505e-005
0.000321507
1.7143e-005
7.15491e-005
4.10751e-006
1.72655e-005
9.13574e-007
3.27631e-006
2.19371e-007
8.45138e-007
1.43611e-007
6.57113e-015
3.97904e-013
-8.42122e-015
-1.34115e-012
2.20498e-013
-1.27365e-012
1.71568e-012
-5.73586e-012
2.42863e-011
-2.49702e-011
1.63712e-010
-2.76868e-010
1.79766e-009
-1.88311e-009
1.15081e-008
-1.56352e-008
9.92858e-008
-1.00106e-007
5.85735e-007
-6.54439e-007
4.00275e-006
-3.71216e-006
2.10616e-005
-1.93109e-005
0.000114224
-9.15873e-005
0.000516531
-0.000375423
0.00220105
-0.00137223
0.00814862
-0.00494317
0.0255661
-0.0154779
0.0676344
-0.0365649
0.151312
-0.0702373
0.291147
-0.112904
0.476118
-0.152871
0.675298
-0.132459
0.858405
-0.0806314
1.0073
-0.0218058
1.12105
-0.027919
1.2075
0.0371273
1.27771
0.0234151
1.30611
0.02656
1.31295
0.0182303
1.33561
0.0771584
1.3692
0.0832874
1.38002
0.0078884
1.37071
-0.0425447
1.36142
-0.0623862
1.3348
-0.0730195
1.21978
-0.106592
1.08582
-0.0975038
0.984821
-0.0927877
0.92233
-0.0736882
0.886962
-0.0532388
0.864677
-0.039001
0.84781
-0.020567
0.810128
0.0259642
0.798331
0.0742445
0.791127
0.106487
0.786193
0.126569
0.771626
0.143535
0.723923
0.143951
0.557588
0.0571753
0.164489
0.00308046
0.0453528
0.219764
0.00928428
0.0482824
0.00180046
0.00704504
0.000416384
0.00234388
8.60952e-005
0.00033936
1.92437e-005
8.80435e-005
4.50797e-006
1.89045e-005
1.02062e-006
3.9322e-006
2.4469e-007
9.70234e-007
1.68396e-007
7.28584e-015
4.67182e-013
-1.00302e-014
-1.41753e-012
2.0261e-013
-2.00728e-012
1.5693e-012
-6.56364e-012
2.2847e-011
-2.43485e-011
1.51017e-010
-2.70022e-010
1.68805e-009
-1.8449e-009
1.06735e-008
-1.52571e-008
9.31822e-008
-9.84614e-008
5.46234e-007
-6.40906e-007
3.76133e-006
-3.66413e-006
1.97556e-005
-1.90073e-005
0.000107681
-9.09377e-005
0.000487412
-0.000371866
0.00208485
-0.00138094
0.00774118
-0.00491302
0.0243801
-0.015638
0.0647219
-0.0367908
0.145237
-0.0716985
0.28033
-0.115071
0.459816
-0.157453
0.654065
-0.138114
0.833153
-0.0861712
0.978365
-0.022789
1.08903
-0.0313786
1.17211
0.0399755
1.23926
0.0248919
1.26589
0.0268904
1.27201
0.0166547
1.29487
0.076227
1.32728
0.0861892
1.33655
0.00718155
1.32763
-0.0495347
1.31802
-0.0692681
1.29219
-0.0890934
1.18789
-0.128401
1.05617
-0.108711
0.955376
-0.0908431
0.895592
-0.0759654
0.862998
-0.0520821
0.840601
-0.033317
0.816058
-0.0114934
0.787636
0.0263977
0.77568
0.0811021
0.7681
0.112369
0.762287
0.13188
0.747249
0.148719
0.702514
0.14977
0.55124
0.0648273
0.172958
-0.0785601
0.0493635
0.253594
0.00995532
0.0499633
0.00197029
0.0085235
0.000456574
0.00263132
9.26546e-005
0.000371116
2.13355e-005
0.000104554
4.89517e-006
2.07668e-005
1.12848e-006
4.65137e-006
2.69265e-007
1.10374e-006
1.96199e-007
6.12618e-015
7.88702e-013
-1.08325e-014
-7.95808e-013
1.91869e-013
-1.74616e-012
1.44124e-012
-6.9722e-012
2.15132e-011
-2.34355e-011
1.39291e-010
-2.62963e-010
1.58571e-009
-1.80641e-009
9.89085e-009
-1.486e-008
8.73824e-008
-9.67303e-008
5.08184e-007
-6.26227e-007
3.52438e-006
-3.60997e-006
1.84436e-005
-1.86546e-005
0.000100935
-9.00095e-005
0.000456529
-0.000366871
0.00195877
-0.00138302
0.00728797
-0.00485885
0.0230207
-0.0157148
0.0612641
-0.0367936
0.137807
-0.072725
0.266721
-0.116438
0.438551
-0.161022
0.624839
-0.142624
0.797047
-0.0910668
0.937532
-0.0248886
1.0455
-0.035023
1.1275
0.0419696
1.19386
0.0246333
1.22159
0.0263074
1.22873
0.0154897
1.25009
0.0756713
1.28105
0.089704
1.2921
0.00661884
1.2831
-0.056885
1.27335
-0.0777833
1.252
-0.105853
1.15515
-0.151413
1.02308
-0.122178
0.925586
-0.0910199
0.865925
-0.0786619
0.833669
-0.0511101
0.812244
-0.0278906
0.789802
-0.00232764
0.763646
0.0316972
0.752069
0.0878481
0.744824
0.116986
0.738645
0.135133
0.723236
0.150077
0.680887
0.149385
0.542697
0.0632593
0.182065
-0.154681
0.0535309
0.288554
0.010662
0.050997
0.00217028
0.010479
0.000496734
0.00285835
0.000100319
0.000420776
2.35444e-005
0.000120475
5.32184e-006
2.30411e-005
1.24707e-006
5.42023e-006
2.96116e-007
1.2515e-006
2.26873e-007
6.62491e-015
9.9476e-013
-1.15715e-014
-9.57456e-013
1.78995e-013
-1.71951e-012
1.3202e-012
-7.23333e-012
2.02837e-011
-2.28386e-011
1.28618e-010
-2.5562e-010
1.49215e-009
-1.76852e-009
9.18428e-009
-1.44568e-008
8.21529e-008
-9.50216e-008
4.74408e-007
-6.11439e-007
3.31569e-006
-3.55733e-006
1.73117e-005
-1.83089e-005
9.52018e-005
-8.91536e-005
0.000430871
-0.000362369
0.00185535
-0.00138638
0.0069218
-0.00481592
0.0219428
-0.0158155
0.0585853
-0.0368823
0.132162
-0.0739035
0.256557
-0.118088
0.423056
-0.16504
0.604451
-0.147848
0.772735
-0.0964909
0.90972
-0.0261356
1.01485
-0.0381698
1.09373
0.0456897
1.15686
0.0245163
1.18355
0.0274498
1.18948
0.0157378