/*--------------------------------*- C++ -*----------------------------------*\
| =========                 |                                                 |
| \\      /  F ield         | OpenFOAM: The Open Source CFD Toolbox           |
|  \\    /   O peration     | Version:  5.x                                   |
|   \\  /    A nd           | Web:      www.OpenFOAM.org                      |
|    \\/     M anipulation  |                                                 |
\*---------------------------------------------------------------------------*/
/*   Windows 32 and 64 bit porting by blueCAPE: http://www.bluecape.com.pt   *\
|  Based on Windows porting (2.0.x v4) by Symscape: http://www.symscape.com   |
\*---------------------------------------------------------------------------*/
FoamFile
{
    version     2.0;
    format      ascii;
    class       volVectorField;
    location    "0.003";
    object      U;
}
// * * * * * * * * * * * * * * * * * * * * * * * * * * * * * * * * * * * * * //

dimensions      [0 1 -1 0 0 0 0];

internalField   nonuniform List<vector> 
10000
(
(2.12295e-012 -5.85892e-013 0)
(1.24121e-012 -8.06776e-013 4.3482e-021)
(2.51216e-012 -7.41572e-012 4.46844e-021)
(8.83186e-011 1.20544e-012 -1.83681e-020)
(8.68036e-010 1.27121e-011 2.8314e-020)
(9.4346e-009 1.49753e-010 -2.89082e-030)
(7.98198e-008 1.54679e-009 -1.99344e-020)
(7.21553e-007 1.60438e-008 0)
(5.30487e-006 1.32299e-007 0)
(3.97079e-005 1.07022e-006 0)
(0.000249072 7.21764e-006 -4.44653e-020)
(0.00152927 4.62279e-005 6.53669e-025)
(0.0080199 0.000252734 4.69588e-020)
(0.0396942 0.00127473 0)
(0.168965 0.00542338 0)
(0.640707 0.02041 0)
(2.0338 0.0641811 0)
(5.6097 0.173829 -5.27195e-020)
(13.1671 0.393905 1.08422e-019)
(26.8732 0.769095 -5.666e-020)
(47.2554 1.28735 5.2781e-020)
(72.9068 1.85154 -5.82772e-020)
(101.197 2.36355 0)
(129.377 2.74274 0)
(156.62 3.1106 0)
(181.934 3.45798 0)
(205.557 3.73968 0)
(227.029 3.82667 0)
(244.656 3.9953 -1.08587e-019)
(259.202 4.25434 1.13868e-019)
(272.096 3.8062 0)
(282.716 3.39414 0)
(291.468 2.76337 0)
(300.349 2.12162 0)
(309.733 1.06448 -1.30307e-019)
(318.187 0.50269 3.05253e-019)
(325.259 0.38107 -3.59626e-019)
(331.118 0.605431 2.05643e-019)
(335.791 1.17584 -2.26335e-019)
(339.009 1.79354 2.41934e-019)
(340.312 2.7812 -2.50313e-019)
(338.586 3.77053 2.61265e-019)
(334.184 5.03371 0)
(327.987 6.87972 0)
(318.7 9.16921 -2.56823e-019)
(302.661 12.1126 2.66782e-019)
(270.91 16.167 0)
(191.773 8.19003 0)
(59.6797 15.5099 0)
(8.61738 1.48361 2.05393e-019)
(1.29547 0.175735 -2.14895e-019)
(0.229493 0.0541681 0)
(0.0391961 2.46512e-006 0)
(0.00664221 0.00213978 2.29911e-019)
(0.00150459 -0.000184714 -2.36272e-019)
(0.00022911 0.000129081 0)
(7.88588e-005 -5.71968e-006 0)
(5.56007e-006 2.49964e-006 2.56418e-019)
(4.95966e-006 1.3708e-006 -1.06094e-026)
(-4.8822e-007 -4.68814e-007 -2.70796e-019)
(2.32097e-012 2.75897e-012 2.18911e-021)
(1.03419e-012 -3.04397e-012 -2.24965e-021)
(2.14251e-012 8.21835e-012 0)
(8.34511e-011 -3.69955e-012 0)
(7.98648e-010 -3.41513e-011 0)
(8.74755e-009 -3.66111e-010 0)
(7.2598e-008 -3.07355e-009 2.06272e-020)
(6.61326e-007 -2.76108e-008 -2.11976e-020)
(4.79538e-006 -2.03067e-007 -2.17838e-020)
(3.61578e-005 -1.49882e-006 2.23862e-020)
(0.000224923 -9.40019e-006 0)
(0.00139072 -5.63879e-005 -4.72824e-020)
(0.00727239 -0.000291749 4.85907e-020)
(0.0362561 -0.00139699 -4.99213e-020)
(0.155004 -0.00564924 5.13179e-020)
(0.593922 -0.0217953 0)
(1.89938 -0.0671757 0)
(5.28646 -0.178819 0)
(12.5057 -0.395307 0)
(25.747 -0.760978 0)
(45.6522 -1.24901 0)
(70.9765 -1.74511 0)
(99.1683 -2.16487 0)
(127.487 -2.54489 0)
(154.948 -2.81023 -5.4183e-020)
(180.602 -3.17617 5.91332e-020)
(204.711 -3.43479 -5.38694e-020)
(226.764 -3.50151 6.00263e-020)
(245.014 -3.64438 0)
(260.138 -3.67127 0)
(273.562 -3.67484 0)
(284.424 -3.5473 0)
(292.621 -3.18609 1.18363e-019)
(300.03 -2.77224 -1.24826e-019)
(307.335 -3.00133 0)
(313.2 -2.44515 0)
(316.787 -1.93838 0)
(318.267 -1.91223 2.078e-019)
(317.835 -2.35121 -2.27722e-019)
(315.813 -3.17923 0)
(312.442 -3.50805 -2.47655e-019)
(307.273 -4.0114 5.10704e-019)
(301.046 -4.5212 -2.59168e-019)
(294.734 -5.86703 0)
(287.074 -7.42713 -2.58416e-019)
(275.339 -8.38527 5.26382e-019)
(252.611 -7.71779 -5.19947e-019)
(190.876 -15.941 2.87458e-019)
(74.4225 14.0108 0)
(12.6635 1.09966 0)
(2.18281 0.302086 0)
(0.383081 0.0615984 0)
(0.0644155 -0.00243839 0)
(0.0124887 0.00325088 0)
(0.0022063 -0.000643035 -2.4448e-019)
(0.000498512 0.000281314 2.51243e-019)
(9.53966e-005 -5.64194e-005 -2.58189e-019)
(2.00833e-005 1.43324e-005 2.65329e-019)
(5.55233e-006 -1.42533e-006 0)
(1.98303e-007 7.74538e-008 0)
(1.8597e-012 -1.82274e-012 2.2651e-021)
(1.4498e-012 -3.6663e-012 2.32774e-021)
(2.16484e-012 -5.36715e-012 -4.78422e-021)
(8.14473e-011 -2.42246e-012 0)
(7.83025e-010 -1.77386e-011 1.0105e-020)
(8.62466e-009 -1.41927e-010 -1.03844e-020)
(7.13875e-008 -6.3711e-010 0)
(6.53069e-007 -2.34035e-009 0)
(4.72995e-006 1.12779e-008 0)
(3.5777e-005 2.44636e-007 0)
(0.000222515 2.5755e-006 0)
(0.00137903 2.08891e-005 0)
(0.00721407 0.000136731 -5.02742e-020)
(0.0360283 0.000776799 5.16681e-020)
(0.154052 0.0037526 0)
(0.590952 0.0137136 -5.43928e-020)
(1.89128 0.0455729 4.95782e-022)
(5.26872 0.128023 1.14159e-019)
(12.4703 0.308328 -5.92229e-020)
(25.681 0.617465 0)
(45.537 1.07397 0)
(70.7749 1.59323 0)
(98.8224 2.0761 5.60209e-020)
(126.952 2.39055 -6.23589e-020)
(154.064 2.87246 0)
(179.65 3.06157 0)
(203.249 3.34083 0)
(224.851 3.42233 0)
(243.253 3.76381 0)
(258.612 3.77791 0)
(271.696 3.27672 0)
(281.637 2.46335 0)
(288.599 1.69336 0)
(294.519 1.28297 0)
(300.237 0.154173 1.34964e-019)
(304.238 -0.10888 -1.51106e-019)
(306.071 0.313628 1.76893e-019)
(306.67 0.759867 -2.02483e-019)
(306.655 1.38158 2.24983e-019)
(306.409 2.19416 -2.42436e-019)
(305.664 3.3488 0)
(303.42 4.11529 -2.59864e-019)
(299.768 6.00958 5.36216e-019)
(295.449 7.95996 -3.17972e-021)
(289.38 9.95055 -2.76367e-019)
(278.711 12.1018 -2.68708e-019)
(256.739 12.8168 2.85854e-019)
(197.539 -0.32557 2.12168e-019)
(83.3694 18.1208 -3.20539e-019)
(15.0297 2.53523 0)
(2.72892 0.675007 2.26505e-019)
(0.483281 0.0899128 -2.34187e-019)
(0.0849782 0.012965 0)
(0.0165247 0.00260124 -2.46157e-019)
(0.0029254 0.000100687 2.52974e-019)
(0.000678997 0.000245447 0)
(0.000114087 -3.87963e-005 2.67151e-019)
(3.14179e-005 1.78784e-005 -2.74539e-019)
(5.98871e-006 -2.37825e-006 0)
(8.10156e-007 7.80047e-007 0)
(1.94778e-012 3.73642e-012 2.34362e-021)
(9.70643e-013 -2.78051e-012 2.40844e-021)
(1.87251e-012 4.29971e-012 4.95008e-021)
(7.81429e-011 -4.7542e-012 -1.01739e-020)
(7.28154e-010 -4.77036e-011 0)
(8.0929e-009 -4.89866e-010 0)
(6.57829e-008 -3.83926e-009 0)
(6.06778e-007 -3.32171e-008 0)
(4.3356e-006 -2.32384e-007 0)
(3.30347e-005 -1.65706e-006 2.39663e-020)
(0.000203693 -1.00297e-005 -5.28218e-026)
(0.00127072 -5.83538e-005 -2.53101e-020)
(0.00662377 -0.00029314 0)
(0.0332908 -0.0013707 -5.34458e-020)
(0.142802 -0.00533959 5.49397e-020)
(0.552917 -0.021099 0)
(1.78087 -0.0643564 0)
(5.00049 -0.170485 0)
(11.9152 -0.369881 -5.9013e-020)
(24.7262 -0.708609 6.27999e-020)
(44.1589 -1.14823 0)
(69.0872 -1.58198 5.84062e-020)
(97.0174 -1.93159 -6.48574e-020)
(125.279 -2.26424 0)
(152.489 -2.45515 0)
(178.634 -2.81239 0)
(202.464 -3.06122 -5.76276e-020)
(224.31 -3.09423 5.20856e-021)
(243.402 -3.08256 6.42259e-020)
(259.676 -2.95677 0)
(273.449 -3.19174 0)
(283.513 -3.15322 -6.17129e-020)
(289.839 -3.14828 6.52125e-020)
(294.355 -2.73855 0)
(298.216 -3.38703 0)
(300.211 -3.50226 0)
(299.653 -2.94217 0)
(297.55 -2.80738 0)
(295.073 -3.20639 0)
(293.122 -3.93263 0)
(291.81 -4.18605 0)
(290.297 -4.27115 0)
(288.276 -4.12988 2.72507e-019)
(285.724 -4.35334 -2.80774e-019)
(281.642 -5.00775 0)
(273.782 -4.90383 0)
(256.572 -4.2083 0)
(207.369 -10.1905 -2.25244e-019)
(100.596 15.5298 3.3436e-019)
(19.4941 3.40008 0)
(3.63606 1.03727 0)
(0.645952 0.119439 0)
(0.117849 0.0269049 0)
(0.0226689 0.00184915 0)
(0.00426537 0.00095456 0)
(0.000924499 0.000142612 2.68974e-019)
(0.000163672 -2.3955e-006 -2.76413e-019)
(4.49847e-005 1.76756e-005 -2.84056e-019)
(7.91214e-006 -1.84547e-006 2.91912e-019)
(1.72685e-006 1.2631e-006 -2.99984e-019)
(1.64969e-012 1.01644e-013 0)
(1.4309e-012 1.42127e-013 4.98367e-021)
(1.68368e-012 -4.44508e-012 -4.58344e-034)
(7.50193e-011 -4.40525e-012 -1.57894e-020)
(7.03306e-010 -3.82125e-011 1.08173e-020)
(7.89486e-009 -3.5332e-010 0)
(6.38092e-008 -2.24332e-009 -2.28478e-020)
(5.93023e-007 -1.6294e-008 2.34796e-020)
(4.22529e-006 -8.24573e-008 0)
(3.23761e-005 -4.13119e-007 0)
(0.00019947 -1.23377e-006 0)
(0.00124959 -5.14832e-007 -2.61863e-020)
(0.00651657 3.51946e-005 5.38201e-020)
(0.032857 0.000322527 -2.76553e-020)
(0.140989 0.0021746 -5.67882e-020)
(0.547102 0.00744702 5.84201e-020)
(1.76465 0.0277363 0)
(4.96386 0.0829479 0)
(11.8421 0.221674 6.10678e-020)
(24.5976 0.462881 -6.4979e-020)
(43.9637 0.851836 0)
(68.8097 1.34113 0)
(96.6188 1.81071 0)
(124.694 2.12105 5.9914e-020)
(151.674 2.52863 -6.65142e-020)
(177.523 2.73317 -6.03559e-020)
(201.085 3.08357 6.5658e-020)
(222.624 3.08974 0)
(241.461 3.35271 -6.18677e-020)
(257.508 3.30097 6.72646e-020)
(271.034 3.16812 0)
(280.938 2.23587 0)
(287.221 1.3579 0)
(291.648 1.30566 -6.86055e-020)
(295.419 0.293993 7.22252e-020)
(297.377 -0.267621 0)
(296.686 -0.189167 0)
(294.328 0.264048 0)
(291.694 1.03474 0)
(289.806 2.05785 2.53403e-019)
(288.748 2.93461 -5.31479e-019)
(287.529 3.45738 2.76378e-019)
(285.864 5.30314 2.81076e-019)
(283.981 6.95966 -2.9053e-019)
(280.794 8.4415 0)
(273.794 9.82 0)
(257.409 9.39383 0)
(212.284 0.301088 0)
(111.727 13.2613 2.28071e-019)
(23.7295 4.97257 -2.83414e-019)
(4.51121 1.44537 0)
(0.803215 0.166753 2.49399e-019)
(0.154084 0.042889 -2.56826e-019)
(0.0289821 0.00212808 -2.63507e-019)
(0.00590732 0.00210053 1.71071e-023)
(0.00116211 -1.58827e-005 2.78291e-019)
(0.000234454 5.69062e-005 -2.85984e-019)
(5.74703e-005 1.23562e-005 2.93893e-019)
(1.05767e-005 -4.38992e-007 3.0202e-019)
(2.46958e-006 1.4514e-006 -6.20745e-019)
(1.78621e-012 1.24985e-012 0)
(7.90967e-013 -2.55111e-013 0)
(1.43514e-012 6.73622e-013 0)
(7.27002e-011 -3.89718e-012 0)
(6.58524e-010 -5.3543e-011 0)
(7.47526e-009 -5.68112e-010 0)
(5.93664e-008 -4.26945e-009 2.36381e-020)
(5.57018e-007 -3.63793e-008 -2.42918e-020)
(3.9162e-006 -2.46036e-007 0)
(3.02433e-005 -1.72145e-006 0)
(0.000184698 -1.01648e-005 -2.63633e-020)
(0.00116464 -5.79669e-005 2.70924e-020)
(0.0060487 -0.000284991 0)
(0.0306763 -0.00131308 0)
(0.131906 -0.0049509 0)
(0.51613 -0.0199776 0)
(1.67378 -0.0604952 0)
(4.74097 -0.160159 0)
(11.3754 -0.341759 0)
(23.7865 -0.653049 0)
(42.777 -1.04803 0)
(67.3294 -1.42264 -6.26717e-020)
(95.0093 -1.74098 6.95434e-020)
(123.164 -2.00765 0)
(150.345 -2.1945 0)
(176.439 -2.4861 0)
(200.322 -2.59355 6.17344e-020)
(222.416 -2.71356 -6.79587e-020)
(241.706 -2.51774 0)
(257.959 -2.68829 0)
(271.691 -2.66766 0)
(281.907 -2.62076 0)
(288.471 -2.59913 0)
(292.915 -2.13939 0)
(296.582 -2.59413 0)
(298.555 -2.88034 0)
(297.734 -2.91599 0)
(294.837 -3.10578 0)
(291.207 -3.28094 0)
(288.004 -3.67591 0)
(285.824 -3.98539 0)
(284.315 -4.50291 0)
(282.876 -3.71269 -2.9018e-019)
(281.346 -3.43388 2.99801e-019)
(278.91 -3.18647 0)
(273.355 -2.27004 0)
(259.924 -1.3459 0)
(221.362 -3.78437 0)
(126.343 8.70915 0)
(29.6794 6.94108 2.41667e-019)
(5.60964 1.79905 -2.64345e-019)
(1.00647 0.248848 0)
(0.198264 0.0526794 0)
(0.0373585 0.00569232 0)
(0.00796594 0.0028648 0)
(0.00145879 -8.74124e-005 0)
(0.000339581 0.000134045 0)
(7.16642e-005 2.17584e-006 0)
(1.52257e-005 3.3089e-006 0)
(3.44814e-006 1.15779e-006 0)
(1.50867e-012 2.53614e-012 0)
(1.37198e-012 -1.6642e-012 0)
(1.2912e-012 -4.23035e-012 0)
(6.92922e-011 -5.24739e-012 0)
(6.2984e-010 -4.98414e-011 0)
(7.24716e-009 -4.92228e-010 0)
(5.70559e-008 -3.29536e-009 0)
(5.40786e-007 -2.57611e-008 0)
(3.78392e-006 -1.47393e-007 0)
(2.94432e-005 -8.8181e-007 0)
(0.000179487 -4.03714e-006 0)
(0.00113811 -1.67038e-005 0)
(0.00591204 -4.45657e-005 0)
(0.0301113 -4.6773e-005 0)
(0.129541 0.000824784 0)
(0.508427 0.00218172 0)
(1.652 0.0122978 0)
(4.69098 0.0429815 0)
(11.2751 0.142865 0)
(23.6119 0.318433 0)
(42.5217 0.637912 0)
(66.9945 1.09338 0)
(94.5738 1.57613 0)
(122.568 1.87207 0)
(149.529 2.24471 0)
(175.375 2.46941 0)
(199.023 2.7468 0)
(220.773 2.75782 0)
(239.775 2.89036 0)
(255.828 2.89605 0)
(269.424 2.83116 0)
(279.659 2.15804 0)
(286.52 1.41745 0)
(291.561 1.21506 0)
(296.083 0.758104 -7.69589e-020)
(299.103 0.196714 8.52094e-020)
(299.376 -0.194931 0)
(297.402 -0.205128 0)
(294.364 0.576317 0)
(291.424 1.64063 0)
(289.048 2.33903 1.41546e-019)
(286.819 2.55219 -1.47546e-019)
(284.498 4.09125 0)
(282.356 5.4092 0)
(279.675 6.4757 0)
(274.175 7.48904 0)
(261.219 7.3354 -1.52303e-019)
(226.144 2.02184 1.68422e-019)
(137.346 6.02612 0)
(35.8769 9.27419 0)
(6.77689 2.15583 0)
(1.23398 0.349678 0)
(0.24647 0.0603385 0)
(0.0476209 0.0126483 0)
(0.0100993 0.00279503 0)
(0.00185964 8.94972e-005 0)
(0.000457312 0.000179916 0)
(8.73293e-005 -2.40654e-006 0)
(2.14201e-005 6.94774e-006 0)
(4.07714e-006 4.23306e-007 0)
(1.56778e-012 3.61632e-013 -2.68491e-021)
(5.35643e-013 -2.15016e-012 8.27749e-021)
(1.1545e-012 -1.04441e-012 -5.67093e-021)
(6.76017e-011 -9.35522e-012 0)
(5.92016e-010 -5.73194e-011 0)
(6.90768e-009 -6.1666e-010 0)
(5.34363e-008 -4.49978e-009 0)
(5.12213e-007 -3.81427e-008 -2.59986e-020)
(3.53664e-006 -2.51835e-007 2.67175e-020)
(2.77598e-005 -1.74152e-006 2.74564e-020)
(0.000167726 -1.0102e-005 -2.82156e-020)
(0.00107079 -5.67505e-005 -2.89956e-020)
(0.00553759 -0.00027448 2.97978e-020)
(0.0283634 -0.00124995 0)
(0.122155 -0.00458213 3.14435e-020)
(0.483056 -0.0188034 -3.23432e-020)
(1.57679 -0.0566233 0)
(4.50498 -0.150061 0)
(10.8812 -0.314485 -6.77788e-020)
(22.9203 -0.601092 4.10037e-021)
(41.4972 -0.955546 7.34269e-020)
(65.6955 -1.2753 0)
(93.1323 -1.55687 0)
(121.183 -1.77652 6.65964e-020)
(148.31 -1.96355 -7.39762e-020)
(174.4 -2.17604 0)
(198.32 -2.23498 0)
(220.527 -2.38626 0)
(239.909 -2.12771 0)
(256.144 -2.2731 0)
(269.934 -2.19365 0)
(280.504 -2.10438 0)
(287.76 -2.04042 -7.25217e-020)
(293.048 -1.84031 7.6419e-020)
(297.745 -1.96052 -7.95575e-020)
(301.012 -2.32378 1.77203e-019)
(301.488 -2.85731 -1.03607e-019)
(299.489 -3.28621 0)
(296.102 -3.34197 -1.31083e-019)
(292.476 -3.39836 2.8064e-019)
(289.45 -3.53604 -1.4729e-019)
(287.136 -3.92198 0)
(284.917 -3.25198 1.55452e-019)
(282.666 -2.62538 -3.20082e-019)
(280.029 -1.77074 1.63828e-019)
(275.106 -0.456179 -1.62217e-019)
(263.864 0.844379 1.69875e-019)
(233.122 -0.310092 0)
(149.8 2.2373 0)
(43.279 11.835 0)
(8.1381 2.51459 -1.33906e-019)
(1.50816 0.462745 1.40163e-019)
(0.302398 0.0727579 -1.41939e-019)
(0.0603644 0.0212354 1.45978e-019)
(0.0124058 0.0023639 0)
(0.00243408 0.000514997 0)
(0.00058464 0.000189864 0)
(0.000110829 4.96827e-006 0)
(2.87091e-005 9.98049e-006 0)
(5.17701e-006 3.00325e-007 0)
(1.49217e-012 6.89033e-013 -2.77749e-021)
(1.22978e-012 -3.76208e-012 -2.8543e-021)
(6.49057e-013 -4.82963e-012 5.86647e-021)
(6.44362e-011 -7.47585e-012 0)
(5.63027e-010 -5.51426e-011 0)
(6.67727e-009 -5.7643e-010 0)
(5.10576e-008 -3.92259e-009 0)
(4.95481e-007 -3.16883e-008 -1.34475e-020)
(3.39785e-006 -1.89211e-007 4.14581e-020)
(2.69141e-005 -1.19309e-006 -8.80518e-027)
(0.000162127 -5.97712e-006 -5.06282e-026)
(0.00104195 -2.82139e-005 -5.99912e-020)
(0.00538666 -0.000103871 1.45237e-024)
(0.0277286 -0.000328957 6.75858e-024)
(0.119487 -0.000271933 3.25551e-020)
(0.474254 -0.0020348 -3.33666e-020)
(1.55161 -0.000493333 3.4391e-020)
(4.44633 0.00919488 -3.47301e-020)
(10.7627 0.0743353 3.63154e-020)
(22.7138 0.189834 0)
(41.1986 0.439714 0)
(65.3171 0.856985 0)
(92.6726 1.34302 0)
(120.585 1.64401 -6.89453e-020)
(147.516 1.97965 7.65949e-020)
(173.379 2.25526 0)
(197.096 2.4302 0)
(219.017 2.47546 0)
(238.16 2.54505 7.12518e-020)
(254.242 2.76005 -1.49916e-019)
(267.911 2.57879 3.76018e-021)
(278.436 2.05463 7.60622e-020)
(285.816 1.44035 0)
(291.466 1.08561 0)
(296.699 0.791236 8.21318e-020)
(300.623 0.26229 -9.12514e-020)
(301.8 -0.305411 -1.06749e-019)
(300.465 -0.647508 1.22051e-019)
(297.632 -0.0689269 0)
(294.465 1.1993 1.44694e-019)
(291.546 2.06306 -1.5224e-019)
(288.804 2.53168 0)
(286.05 3.25602 0)
(283.5 4.35357 1.6488e-019)
(280.78 5.15611 -1.69689e-019)
(275.962 5.99141 0)
(265.191 6.17842 0)
(237.106 2.78476 0)
(159.92 -0.699717 1.31209e-019)
(51.0642 14.4689 -1.86182e-019)
(9.62842 2.89391 0)
(1.82158 0.573161 0)
(0.365496 0.0948639 -1.46827e-019)
(0.0749911 0.0292242 1.51031e-019)
(0.0148823 0.00200592 0)
(0.00316421 0.00108731 -1.59384e-019)
(0.00071209 0.000158213 9.36118e-025)
(0.000141803 2.40022e-005 3.36643e-019)
(3.67404e-005 1.14643e-005 -1.72976e-019)
(6.2281e-006 2.90628e-007 1.7776e-019)
(1.54123e-012 -1.38802e-012 0)
(4.93878e-013 -3.44935e-012 0)
(6.08339e-013 -2.42919e-012 0)
(6.29704e-011 -9.53118e-012 0)
(5.30434e-010 -5.73328e-011 -1.28177e-020)
(6.39633e-009 -6.44888e-010 1.31721e-020)
(4.80324e-008 -4.5969e-009 0)
(4.72308e-007 -3.89426e-008 0)
(3.19554e-006 -2.53064e-007 0)
(2.55608e-005 -1.73632e-006 0)
(0.000152596 -9.95583e-006 0)
(0.000987828 -5.52523e-005 0)
(0.00508298 -0.000264279 0)
(0.0263134 -0.00118988 0)
(0.11342 -0.00427244 0)
(0.453285 -0.0177347 0)
(1.48883 -0.0532257 0)
(4.29009 -0.141025 0)
(10.4282 -0.290162 0)
(22.121 -0.555317 0)
(40.311 -0.874653 0)
(64.176 -1.14383 0)
(91.3796 -1.38318 0)
(119.325 -1.57394 0)
(146.395 -1.7436 0)
(172.489 -1.87582 0)
(196.434 -1.91172 0)
(218.741 -2.04373 0)
(238.248 -1.77141 0)
(254.49 -1.63104 0)
(268.284 -1.79919 0)
(279.052 -1.79388 0)
(286.658 -1.68712 0)
(292.314 -1.68598 8.05724e-020)
(297.414 -1.63333 -1.69877e-019)
(301.247 -2.00036 9.44123e-020)
(302.386 -2.51231 1.10496e-019)
(300.963 -3.06128 -1.26488e-019)
(297.927 -3.28426 0)
(294.38 -3.05106 0)
(291.244 -2.97691 0)
(288.779 -2.92201 0)
(286.38 -2.45287 0)
(283.872 -1.56398 0)
(281.172 -0.492336 0)
(276.734 0.967501 0)
(267.084 2.14211 1.72398e-019)
(242.038 0.854803 -1.86186e-019)
(170.577 -4.28135 1.36084e-019)
(59.7519 17.1265 -1.98562e-019)
(11.333 3.3156 0)
(2.18575 0.683398 0)
(0.439785 0.133786 0)
(0.0914119 0.034683 0)
(0.0178202 0.00256298 0)
(0.00405294 0.00165388 -1.64874e-019)
(0.000849263 0.000130215 1.69435e-019)
(0.000185247 5.38387e-005 0)
(4.51285e-005 1.12798e-005 0)
(8.07581e-006 1.42159e-006 0)
(1.32697e-012 8.27161e-013 0)
(1.06091e-012 -3.52188e-012 0)
(2.07197e-013 -5.64028e-012 0)
(5.99866e-011 -6.53437e-012 0)
(5.02583e-010 -5.6807e-011 1.32588e-020)
(6.17875e-009 -6.2238e-010 -1.36254e-020)
(4.57364e-008 -4.25173e-009 0)
(4.56223e-007 -3.50161e-008 0)
(3.05961e-006 -2.1397e-007 1.47874e-020)
(2.47298e-005 -1.38375e-006 -1.51963e-020)
(0.000147001 -7.24167e-006 -3.1233e-020)
(0.000958767 -3.59267e-005 6.41933e-020)
(0.00492853 -0.000146107 -3.29845e-020)
(0.0256545 -0.000533971 0)
(0.110635 -0.00113781 0)
(0.443984 -0.00527293 0)
(1.46193 -0.0108096 -3.65353e-020)
(4.22656 -0.0183655 7.50123e-020)
(10.2988 0.0153285 -3.88606e-020)
(21.8943 0.0786122 0)
(39.9833 0.262302 0)
(63.7664 0.637631 0)
(90.9043 1.11736 0)
(118.736 1.4395 0)
(145.626 1.72202 0)
(171.532 2.05699 0)
(195.292 2.14971 0)
(217.35 2.253 -7.42515e-020)
(236.689 2.23636 8.24428e-020)
(252.896 2.59955 0)
(266.692 2.3195 0)
(277.473 1.82729 0)
(285.134 1.32672 0)
(290.982 0.818991 0)
(296.359 0.655368 0)
(300.5 0.116377 0)
(301.931 -0.354217 0)
(300.753 -0.70536 0)
(297.949 -0.684407 -1.44292e-019)
(294.676 0.559717 1.54877e-019)
(291.65 1.88838 0)
(288.94 2.50783 0)
(286.333 2.85865 1.72064e-019)
(283.908 3.46316 -1.78303e-019)
(281.435 4.14346 0)
(277.245 4.92777 1.80838e-019)
(268.097 5.16499 -1.88223e-019)
(245.122 2.23918 0)
(179.581 -6.60504 0)
(68.8036 19.5631 0)
(13.2215 3.72849 0)
(2.59841 0.802109 -1.5269e-019)
(0.525211 0.18595 1.57948e-019)
(0.108752 0.0364323 1.61485e-019)
(0.021411 0.00435523 -3.46559e-023)
(0.00501496 0.00204092 -1.70557e-019)
(0.00100719 0.000142625 1.75265e-019)
(0.00023558 8.10663e-005 -1.80112e-019)
(5.44247e-005 1.15703e-005 1.85093e-019)
(1.01993e-005 2.45421e-006 -3.80422e-019)
(1.31905e-012 3.92943e-013 0)
(4.00824e-013 -3.51053e-012 3.15924e-021)
(2.88503e-013 -3.90881e-012 -3.24661e-021)
(5.88538e-011 -7.93292e-012 0)
(4.7384e-010 -5.75467e-011 0)
(5.94224e-009 -6.56086e-010 0)
(4.31563e-008 -4.59981e-009 0)
(4.3706e-007 -3.90026e-008 0)
(2.89064e-006 -2.51245e-007 1.52958e-020)
(2.36215e-005 -1.71331e-006 -1.57188e-020)
(0.000139134 -9.7702e-006 0)
(0.000914555 -5.36699e-005 0)
(0.00467857 -0.000255338 3.41171e-020)
(0.0244938 -0.00113582 -3.50623e-020)
(0.105592 -0.00403801 -3.60063e-020)
(0.426467 -0.0167933 9.27831e-023)
(1.40902 -0.0504574 3.80643e-020)
(4.0942 -0.133254 0)
(10.0128 -0.27054 3.88876e-020)
(21.3831 -0.516551 -4.12221e-020)
(39.2107 -0.806368 0)
(62.7621 -1.02941 3.86451e-020)
(89.7436 -1.2235 -8.12411e-020)
(117.584 -1.38534 4.2742e-020)
(144.593 -1.54334 -3.81815e-020)
(170.698 -1.60252 4.26558e-020)
(194.65 -1.63901 -7.61013e-020)
(217.036 -1.72786 7.03831e-021)
(236.712 -1.52289 8.53267e-020)
(253.055 -1.23184 0)
(266.936 -1.47916 0)
(277.951 -1.56588 0)
(285.862 -1.51087 -8.26222e-020)
(291.781 -1.57736 8.72866e-020)
(297.095 -1.42359 0)
(301.181 -1.78125 -1.01071e-019)
(302.562 -2.17315 1.18165e-019)
(301.174 -2.61758 -1.35399e-019)
(297.992 -3.105 3.86347e-023)
(294.15 -3.03664 1.23975e-022)
(290.73 -2.4803 5.19737e-022)
(288.21 -1.91693 1.39846e-021)
(285.981 -1.46615 1.79943e-019)
(283.735 -0.571568 -1.82657e-019)
(281.43 0.57078 1.88272e-019)
(277.667 1.84066 0)
(269.424 2.75678 0)
(248.646 1.06415 0)
(188.546 -7.72578 0)
(78.4941 21.0316 0)
(15.3745 4.17132 0)
(3.07214 0.960094 -1.57893e-019)
(0.623956 0.247548 3.2603e-019)
(0.127413 0.036318 -1.93416e-022)
(0.0259283 0.00753449 -1.71708e-019)
(0.0060434 0.00224739 0)
(0.00120436 0.000217134 0)
(0.000294237 0.000107192 0)
(6.52388e-005 1.33059e-005 0)
(1.3043e-005 3.98598e-006 -1.96751e-019)
(1.28337e-012 -1.89891e-012 0)
(8.95921e-013 -3.91182e-012 -3.26777e-021)
(-3.09303e-013 -5.40461e-012 1.00744e-020)
(5.62418e-011 -6.46236e-012 -6.902e-021)
(4.48127e-010 -5.80491e-011 0)
(5.74405e-009 -6.39916e-010 1.4578e-020)
(4.10178e-008 -4.38147e-009 -2.99623e-020)
(4.22203e-007 -3.65221e-008 1.53955e-020)
(2.76265e-006 -2.26793e-007 1.58212e-020)
(2.28393e-005 -1.48674e-006 -1.62587e-020)
(0.000133779 -8.01012e-006 -1.67083e-020)
(0.00088657 -4.0765e-005 5.15109e-020)
(0.00452763 -0.000175059 -7.05796e-020)
(0.0238422 -0.000676263 3.62667e-020)
(0.102819 -0.0018092 0)
(0.417098 -0.0076407 0)
(1.38163 -0.0189635 0)
(4.02868 -0.0401593 -3.98134e-020)
(9.87799 -0.0349578 4.15787e-020)
(21.1456 -0.0151392 -4.03339e-020)
(38.8659 0.106379 4.35322e-020)
(62.3323 0.437685 3.99867e-020)
(89.2597 0.901628 -4.4291e-020)
(117.01 1.24962 0)
(143.856 1.48569 0)
(169.808 1.88259 0)
(193.594 1.89004 0)
(215.751 2.0179 0)
(235.29 1.92841 0)
(251.669 2.35292 -8.33888e-020)
(265.633 2.06816 8.73623e-020)
(276.698 1.57925 -8.32884e-020)
(284.692 1.20818 8.8224e-020)
(290.857 0.643984 0)
(296.534 0.511973 9.34671e-020)
(301.044 -0.0289541 -1.03821e-019)
(302.871 -0.496264 1.21733e-019)
(301.834 -0.826272 -1.3917e-019)
(298.865 -0.939589 0)
(295.132 -0.281439 -1.64783e-019)
(291.482 1.37496 5.93496e-022)
(288.367 2.3235 1.50056e-021)
(285.748 2.32492 1.85813e-019)
(283.563 2.73328 0)
(281.517 3.47845 0)
(278.052 4.2815 -1.94548e-019)
(270.318 4.72916 2.01879e-019)
(251.111 2.4988 0)
(196.227 -6.70912 1.53776e-019)
(88.8681 20.3682 -3.84411e-019)
(17.8473 4.64936 2.21529e-020)
(3.60545 1.16839 1.69323e-019)
(0.733709 0.30577 0)
(0.147253 0.0360108 0)
(0.0313458 0.011564 1.77559e-019)
(0.00707692 0.00224655 -3.64954e-019)
(0.00144854 0.000354643 2.49694e-024)
(0.00035573 0.000123667 3.85409e-019)
(7.80195e-005 1.72748e-005 -1.98033e-019)
(1.60893e-005 5.06965e-006 0)
(1.2587e-012 1.39e-012 0)
(2.27258e-013 -1.82097e-012 -3.37992e-021)
(-1.91697e-014 -2.66855e-012 3.47339e-021)
(5.53343e-011 -1.01084e-011 -7.13888e-021)
(4.22563e-010 -5.69181e-011 7.3363e-021)
(5.54272e-009 -6.53542e-010 0)
(3.87849e-008 -4.53861e-009 1.54953e-020)
(4.06105e-007 -3.84966e-008 -3.18477e-020)
(2.61905e-006 -2.47329e-007 1.63642e-020)
(2.19163e-005 -1.67724e-006 1.68167e-020)
(0.000127172 -9.56603e-006 -1.72818e-020)
(0.000849871 -5.20825e-005 0)
(0.00431875 -0.0002478 0)
(0.0228768 -0.00108806 0)
(0.0985766 -0.00387433 0)
(0.402292 -0.0159453 3.95244e-020)
(1.33657 -0.0483271 -8.11735e-020)
(3.91545 -0.126705 8.30513e-020)
(9.63147 -0.255837 -8.46503e-020)
(20.7015 -0.484082 4.41079e-020)
(38.1896 -0.750941 4.16197e-020)
(61.4455 -0.932877 -4.56354e-020)
(88.2167 -1.08142 0)
(115.953 -1.20985 0)
(142.904 -1.38016 0)
(169.017 -1.33376 0)
(192.965 -1.37431 0)
(215.408 -1.443 0)
(235.254 -1.26702 4.2247e-020)
(251.748 -0.85106 -8.91465e-020)
(265.767 -1.10717 4.51774e-020)
(277.087 -1.32528 0)
(285.381 -1.32697 0)
(291.704 -1.40895 -9.16898e-020)
(297.448 -1.25331 2.9573e-022)
(302.091 -1.63518 -8.82025e-023)
(304.164 -1.97194 -2.83986e-022)
(303.321 -2.41694 -2.11483e-022)
(300.375 -2.8033 1.59016e-019)
(296.415 -2.94766 -1.70451e-019)
(292.425 -2.27742 3.5797e-019)
(289.155 -1.16955 -1.86171e-019)
(286.448 -0.850889 0)
(284.051 0.146154 0)
(281.876 1.42109 1.99444e-019)
(278.611 2.47021 -2.05363e-019)
(271.491 3.36418 0)
(253.851 2.26671 -1.93409e-019)
(203.646 -4.95577 3.8177e-019)
(99.6457 18.0989 -2.38154e-019)
(20.8094 5.31174 1.6312e-019)
(4.21267 1.45534 -1.76065e-019)
(0.855265 0.354356 -1.73839e-019)
(0.169762 0.0397436 1.78976e-019)
(0.037697 0.0159146 1.83653e-019)
(0.00817277 0.0022398 -1.88747e-019)
(0.00175097 0.000545188 0)
(0.000422499 0.000137782 0)
(9.36192e-005 2.38545e-005 0)
(1.9654e-005 6.31507e-006 0)
(1.30653e-012 -2.63922e-012 0)
(8.34577e-013 -5.03764e-012 0)
(-7.65078e-013 -5.19423e-012 0)
(5.27957e-011 -9.24995e-012 0)
(3.99131e-010 -5.75637e-011 0)
(5.36612e-009 -6.40696e-010 0)
(3.68328e-008 -4.38544e-009 0)
(3.92702e-007 -3.68031e-008 0)
(2.5013e-006 -2.31707e-007 0)
(2.11991e-005 -1.52923e-006 0)
(0.000122179 -8.4278e-006 0)
(0.00082369 -4.34902e-005 0)
(0.00417553 -0.000193953 0)
(0.0222524 -0.000769445 0)
(0.0958983 -0.00231905 0)
(0.393146 -0.00927824 0)
(1.30955 -0.0253187 0)
(3.85005 -0.0569824 0)
(9.4957 -0.0770773 0)
(20.4605 -0.092475 0)
(37.8372 -0.0288735 0)
(61.0052 0.257614 0)
(87.7302 0.699215 -4.26368e-020)
(115.395 1.07321 4.74082e-020)
(142.203 1.28432 0)
(168.192 1.70527 0)
(191.994 1.66842 0)
(214.242 1.77903 0)
(233.975 1.64245 0)
(250.53 2.144 0)
(264.687 1.92285 0)
(276.108 1.36714 0)
(284.549 0.99602 -4.56174e-020)
(291.177 0.468928 4.81881e-020)
(297.324 0.361984 0)
(302.456 -0.174564 0)
(305.08 -0.520383 0)
(304.76 -0.964305 0)
(302.235 -1.10003 0)
(298.57 -0.795177 0)
(294.546 0.463354 0)
(290.69 1.88631 1.91302e-019)
(287.416 1.93293 -1.98824e-019)
(284.807 2.22758 0)
(282.537 3.13188 0)
(279.272 3.84739 0)
(272.45 4.36158 0)
(256.027 3.16461 -2.01408e-019)
(210.178 -3.25934 2.27154e-019)
(110.016 15.3834 0)
(24.2474 6.14093 0)
(4.88874 1.79607 0)
(0.98502 0.384197 0)
(0.195407 0.0488799 0)
(0.0446527 0.0196947 0)
(0.00933501 0.00231266 0)
(0.00210083 0.000752557 0)
(0.000492006 0.000148383 0)
(0.000111794 3.20529e-005 0)
(2.33577e-005 7.16439e-006 0)
(1.04583e-012 3.31233e-013 0)
(1.95586e-013 -2.35293e-012 0)
(-3.21161e-013 -2.80355e-012 3.71558e-021)
(5.2156e-011 -1.18051e-011 -3.81833e-021)
(3.76315e-010 -5.37979e-011 0)
(5.19344e-009 -6.42059e-010 0)
(3.4881e-008 -4.43182e-009 0)
(3.79015e-007 -3.75614e-008 0)
(2.37757e-006 -2.42022e-007 -1.75052e-020)
(2.04192e-005 -1.63134e-006 3.59787e-020)
(0.000116547 -9.3441e-006 -1.84868e-020)
(0.000792776 -5.04365e-005 0)
(0.00399852 -0.000241211 0)
(0.021438 -0.0010448 0)
(0.0922881 -0.00376578 0)
(0.380485 -0.0151666 -4.22849e-020)
(1.27077 -0.046774 2.79277e-022)
(3.7522 -0.121271 4.47746e-020)
(9.2814 -0.245362 0)
(20.0718 -0.457342 0)
(37.2415 -0.707583 4.45895e-020)
(60.219 -0.854064 -4.88551e-020)
(86.7918 -0.957642 0)
(114.426 -1.04945 0)
(141.323 -1.2474 0)
(167.431 -1.08152 0)
(191.375 -1.13297 4.37064e-020)
(213.881 -1.17918 -4.0575e-021)
(233.89 -1.00714 -4.89556e-020)
(250.523 -0.490539 0)
(264.689 -0.695164 0)
(276.371 -1.08184 0)
(285.152 -1.18735 0)
(292.003 -1.28252 4.89435e-020)
(298.316 -1.06849 -2.18265e-022)
(303.701 -1.49162 -1.13719e-019)
(306.701 -1.77531 6.62189e-020)
(306.719 -2.24583 0)
(304.354 -2.44621 8.48309e-020)
(300.585 -2.52573 -9.12722e-020)
(296.359 -2.12382 -1.91546e-019)
(292.356 -0.924143 1.99443e-019)
(288.838 -0.0364366 0)
(285.854 0.804392 0)
(283.305 1.85377 0)
(280.03 2.64976 0)
(273.565 3.35632 0)
(258.339 2.88916 0)
(216.395 -1.97612 -1.80137e-019)
(120.019 12.6048 8.26385e-020)
(28.1778 7.23138 3.90238e-019)
(5.64768 2.19036 -9.91655e-021)
(1.12589 0.401886 -1.87865e-019)
(0.225997 0.0659521 0)
(0.0521674 0.0226929 0)
(0.0106746 0.00267531 -2.01894e-019)
(0.00249921 0.000964554 2.07483e-019)
(0.000569455 0.000166287 0)
(0.000133111 4.20234e-005 2.19112e-019)
(2.75701e-005 8.3382e-006 -2.25171e-019)
(1.14415e-012 -1.31528e-012 0)
(8.43497e-013 -3.85452e-012 0)
(-1.17538e-012 -3.72609e-012 -3.84278e-021)
(4.98006e-011 -1.11672e-011 1.18472e-020)
(3.5537e-010 -5.5252e-011 -5.26444e-032)
(5.03783e-009 -6.26975e-010 -1.66819e-020)
(3.31191e-008 -4.3133e-009 1.71433e-020)
(3.67093e-007 -3.62665e-008 -8.80868e-021)
(2.27073e-006 -2.31549e-007 0)
(1.97724e-005 -1.53043e-006 0)
(0.00011197 -8.59725e-006 1.91197e-020)
(0.000768736 -4.46519e-005 -1.96485e-020)
(0.00386525 -0.000205281 2.01911e-020)
(0.0208522 -0.000825112 -2.07503e-020)
(0.0897553 -0.00269666 0)
(0.371746 -0.0103465 0)
(1.24471 -0.0302086 0)
(3.68842 -0.0696728 0)
(9.14776 -0.111655 0)
(19.8327 -0.155834 -4.62768e-020)
(36.8892 -0.144574 4.98545e-020)
(59.7763 0.0979778 0)
(86.3076 0.51114 0)
(113.884 0.907995 -4.55363e-020)
(140.663 1.10439 5.04787e-020)
(166.674 1.52662 0)
(190.491 1.45264 -4.52501e-020)
(212.832 1.58341 9.53825e-020)
(232.737 1.41834 -5.06676e-020)
(249.428 1.98304 0)
(263.744 1.89238 0)
(275.53 1.20323 -4.76115e-020)
(284.479 0.739126 5.04393e-020)