/*--------------------------------*- C++ -*----------------------------------*\
| =========                 |                                                 |
| \\      /  F ield         | OpenFOAM: The Open Source CFD Toolbox           |
|  \\    /   O peration     | Version:  5.x                                   |
|   \\  /    A nd           | Web:      www.OpenFOAM.org                      |
|    \\/     M anipulation  |                                                 |
\*---------------------------------------------------------------------------*/
/*   Windows 32 and 64 bit porting by blueCAPE: http://www.bluecape.com.pt   *\
|  Based on Windows porting (2.0.x v4) by Symscape: http://www.symscape.com   |
\*---------------------------------------------------------------------------*/
FoamFile
{
    version     2.0;
    format      ascii;
    class       volScalarField;
    location    "0.0005";
    object      mag(U);
}
// * * * * * * * * * * * * * * * * * * * * * * * * * * * * * * * * * * * * * //

dimensions      [0 1 -1 0 0 0 0];

internalField   nonuniform List<scalar> 
100
(
0.00841559
0.261672
20.1829
130.679
7.03674
0.357686
0.00841559
0.261672
20.1829
130.679
7.03674
0.357682
0.00841559
0.261672
20.1829
130.679
7.03672
0.357668
0.00841559
0.261672
20.1829
130.679
7.03666
0.357617
0.00841559
0.261672
20.1829
130.679
7.03657
0.357599
0.00841559
0.261672
20.1829
130.679
7.03608
0.370484
0.00841559
0.261672
20.1829
130.679
7.03604
0.370471
0.00841559
0.261672
20.1829
130.679
7.03602
0.370484
0.00841559
0.261672
20.1829
130.679
7.03602
0.370484
0.00841559
0.261672
20.1829
130.679
7.03602
0.370484
0.0162596
0.00293355
0.0163384
0.00293374
0.0163652
0.00293383
0.0163656
0.00293384
0.0163656
0.00293384
6.27902e-008
1.30165e-009
2.18835e-011
6.05919e-007
1.716e-008
2.19253e-010
4.94069e-006
1.15014e-007
1.59102e-009
1.65556e-005
6.04278e-007
5.44589e-009
5.59209e-005
1.61649e-006
1.36951e-008
0.000147149
8.03931e-006
3.38726e-008
0.000140141
8.34364e-006
3.35658e-008
0.000140126
8.44375e-006
3.38474e-008
0.000140127
8.44475e-006
3.38497e-008
0.000140127
8.44483e-006
3.38498e-008
)
;

boundaryField
{
    inlet
    {
        type            calculated;
        value           nonuniform List<scalar> 10(0.00841559 0.00841559 0.00841559 0.00841559 0.00841559 0.00841559 0.00841559 0.00841559 0.00841559 0.00841559);
    }
    outlet
    {
        type            calculated;
        value           nonuniform List<scalar> 10(3.38726e-008 3.35658e-008 3.38474e-008 3.38497e-008 3.38498e-008 2.18835e-011 2.19253e-010 1.59102e-009 5.44589e-009 1.36951e-008);
    }
    bottom
    {
        type            symmetryPlane;
    }
    top
    {
        type            symmetryPlane;
    }
    obstacle
    {
        type            calculated;
        value           nonuniform List<scalar> 
12
(
0.357686
0.357682
0.357668
0.357617
0.357599
6.27902e-008
6.05919e-007
4.94069e-006
1.65556e-005
5.59209e-005
0.0162596
0.00293355
)
;
    }
    defaultFaces
    {
        type            empty;
    }
}


// ************************************************************************* //
