/*--------------------------------*- C++ -*----------------------------------*\
| =========                 |                                                 |
| \\      /  F ield         | OpenFOAM: The Open Source CFD Toolbox           |
|  \\    /   O peration     | Version:  5.x                                   |
|   \\  /    A nd           | Web:      www.OpenFOAM.org                      |
|    \\/     M anipulation  |                                                 |
\*---------------------------------------------------------------------------*/
/*   Windows 32 and 64 bit porting by blueCAPE: http://www.bluecape.com.pt   *\
|  Based on Windows porting (2.0.x v4) by Symscape: http://www.symscape.com   |
\*---------------------------------------------------------------------------*/
FoamFile
{
    version     2.0;
    format      ascii;
    class       volScalarField;
    location    "0.0005";
    object      p;
}
// * * * * * * * * * * * * * * * * * * * * * * * * * * * * * * * * * * * * * //

dimensions      [1 -1 -2 0 0 0 0];

internalField   nonuniform List<scalar> 
100
(
99999.1
99786.9
95733.7
15413.1
10309.9
10009.4
99999.1
99786.9
95733.7
15413.1
10309.9
10009.4
99999.1
99786.9
95733.7
15413.1
10309.9
10009.4
99999.1
99786.9
95733.7
15413.1
10309.9
10009.5
99999.1
99786.9
95733.7
15413.1
10309.9
10009.7
99999.1
99786.9
95733.7
15413.1
10309.9
10010.3
99999.1
99786.9
95733.7
15413.1
10309.9
10010.3
99999.1
99786.9
95733.7
15413.1
10309.9
10010.4
99999.1
99786.9
95733.7
15413.1
10309.9
10010.4
99999.1
99786.9
95733.7
15413.1
10309.9
10010.4
10000.9
10000.1
10000.9
10000.1
10000.9
10000.1
10000.9
10000.1
10000.9
10000.1
10000
10000
10000
10000
10000
10000
10000
10000
10000
10000
10000
10000
10000
10000
10000
10000
10000
10000
10000
10000
10000
10000
10000
10000
10000
10000
10000
10000
10000
10000
)
;

boundaryField
{
    inlet
    {
        type            zeroGradient;
    }
    outlet
    {
        type            zeroGradient;
    }
    bottom
    {
        type            symmetryPlane;
    }
    top
    {
        type            symmetryPlane;
    }
    obstacle
    {
        type            zeroGradient;
    }
    defaultFaces
    {
        type            empty;
    }
}


// ************************************************************************* //
