/*--------------------------------*- C++ -*----------------------------------*\
| =========                 |                                                 |
| \\      /  F ield         | OpenFOAM: The Open Source CFD Toolbox           |
|  \\    /   O peration     | Version:  5.x                                   |
|   \\  /    A nd           | Web:      www.OpenFOAM.org                      |
|    \\/     M anipulation  |                                                 |
\*---------------------------------------------------------------------------*/
/*   Windows 32 and 64 bit porting by blueCAPE: http://www.bluecape.com.pt   *\
|  Based on Windows porting (2.0.x v4) by Symscape: http://www.symscape.com   |
\*---------------------------------------------------------------------------*/
FoamFile
{
    version     2.0;
    format      ascii;
    class       surfaceScalarField;
    location    "0.0005";
    object      phi;
}
// * * * * * * * * * * * * * * * * * * * * * * * * * * * * * * * * * * * * * //

dimensions      [1 0 -1 0 0 0 0];

internalField   nonuniform List<scalar> 
174
(
0.0242796
-1.93268e-012
2.24841
2.90612e-012
20.8694
1.5433e-011
1.29283
-1.07733e-008
0.0646803
4.55076e-008
-1.16152e-005
0.0162368
-1.27898e-013
1.5036
-3.1406e-012
13.9562
5.44027e-010
0.864569
-6.71787e-008
0.0432543
4.14116e-007
-7.57928e-005
0.0108582
-2.70006e-012
1.00552
-2.00799e-011
9.33309
3.19842e-009
0.578172
-2.35e-007
0.0289258
1.81665e-006
-0.000264975
0.0072613
-3.21165e-012
0.672431
-4.52189e-011
6.24142
1.09491e-008
0.386647
-5.06644e-007
0.0193435
6.10288e-006
-0.000646444
0.00485592
-2.38742e-012
0.449682
-1.89289e-011
4.17389
2.14033e-008
0.258566
-7.5917e-007
0.0129354
1.23551e-005
-0.00107893
0.0206104
-1.55609e-012
1.90862
-6.67555e-012
17.7156
6.34653e-009
1.09745
-2.34348e-007
0.0550121
3.93187e-006
-0.000367225
0.00151713
0.0366511
-1.74083e-013
3.39407
-3.48166e-013
31.5033
1.96403e-010
1.95157
-1.558e-008
0.0978267
1.15284e-007
-1.71256e-005
0.00270098
0.0651759
4.40536e-013
6.0356
2.20268e-013
56.0216
2.17337e-011
3.47043
-1.87563e-009
0.173963
1.42933e-008
-2.30372e-006
0.00480498
0.115901
9.85878e-014
10.733
6.03961e-014
99.6221
1.32783e-013
6.1714
-1.80132e-011
0.309355
8.33504e-011
-1.9226e-008
0.00854465
0.206104
19.0862
177.156
10.9745
0.55012
0.0151948
0.000165138
-5.54642e-008
-2.20164e-008
2.6767e-005
0.000294637
-2.2987e-008
-9.73869e-009
4.75955e-005
0.000524531
-3.05196e-009
-1.24941e-009
8.4637e-005
0.000932776
-3.70124e-011
-1.39577e-011
0.000150508
0.00165874
0.000267646
4.14863e-011
-1.14189e-008
1.42202e-011
-3.18176e-010
-3.95084e-011
3.72994e-010
-9.64633e-008
1.32455e-010
-2.99821e-009
-3.04541e-010
1.5698e-009
-4.10955e-007
5.70509e-010
-1.40428e-008
-1.26785e-009
5.7417e-009
-1.33534e-006
2.16628e-009
-5.19944e-008
-3.39058e-009
9.55712e-009
-2.67639e-006
3.688e-009
-1.13951e-007
-5.92043e-009
1.6341e-006
-8.43989e-007
8.90586e-008
-3.40332e-008
-1.72992e-009
2.91119e-006
-2.41082e-008
1.64622e-007
-7.25729e-010
-7.64544e-011
5.18008e-006
-2.9658e-009
2.96128e-007
-8.36062e-011
-8.61289e-012
9.21176e-006
-1.75845e-011
5.26656e-007
-4.11282e-013
-8.80407e-014
1.63811e-005
9.3655e-007
)
;

boundaryField
{
    inlet
    {
        type            calculated;
        value           nonuniform List<scalar> 10(-0.00127988 -0.00227598 -0.00404733 -0.00719728 -0.0127988 -0.00150773 -0.00100828 -0.000674277 -0.000450916 -0.000301546);
    }
    outlet
    {
        type            calculated;
        value           nonuniform List<scalar> 10(5.53148e-010 1.01299e-009 1.81608e-009 3.22971e-009 5.74335e-009 5.14663e-014 5.13911e-013 2.41594e-012 1.03629e-011 1.93969e-011);
    }
    bottom
    {
        type            symmetryPlane;
        value           uniform 0;
    }
    top
    {
        type            symmetryPlane;
        value           uniform 0;
    }
    obstacle
    {
        type            calculated;
        value           nonuniform List<scalar> 
12
(
0.00803372
0.00537243
0.00359262
0.00240215
0.00160604
-2.22651e-011
-2.08272e-010
-8.98666e-010
-3.41815e-009
-5.82007e-009
3.64421e-008
1.28219e-008
)
;
    }
    defaultFaces
    {
        type            empty;
        value           nonuniform 0();
    }
}


// ************************************************************************* //
