/*--------------------------------*- C++ -*----------------------------------*\
| =========                 |                                                 |
| \\      /  F ield         | OpenFOAM: The Open Source CFD Toolbox           |
|  \\    /   O peration     | Version:  5.x                                   |
|   \\  /    A nd           | Web:      www.OpenFOAM.org                      |
|    \\/     M anipulation  |                                                 |
\*---------------------------------------------------------------------------*/
/*   Windows 32 and 64 bit porting by blueCAPE: http://www.bluecape.com.pt   *\
|  Based on Windows porting (2.0.x v4) by Symscape: http://www.symscape.com   |
\*---------------------------------------------------------------------------*/
FoamFile
{
    version     2.0;
    format      ascii;
    class       volVectorField;
    location    "0.0005";
    object      U;
}
// * * * * * * * * * * * * * * * * * * * * * * * * * * * * * * * * * * * * * //

dimensions      [0 1 -1 0 0 0 0];

internalField   nonuniform List<vector> 
100
(
(0.00841559 -5.47364e-013 0)
(0.261672 7.80168e-013 0)
(20.1829 -1.1307e-012 0)
(130.679 -8.93605e-009 0)
(7.03674 5.6982e-008 0)
(0.357686 -2.32605e-005 0)
(0.00841559 -1.77688e-013 0)
(0.261672 5.11348e-013 0)
(20.1829 1.88294e-011 0)
(130.679 -7.68397e-008 0)
(7.03674 5.69462e-007 0)
(0.357682 -0.000191581 0)
(0.00841559 4.23991e-014 0)
(0.261672 -2.28824e-012 0)
(20.1829 5.21984e-010 0)
(130.679 -4.39097e-007 0)
(7.03672 5.02277e-006 0)
(0.357666 -0.00117197 0)
(0.00841559 -8.07326e-013 0)
(0.261672 -9.99638e-012 0)
(20.1829 2.25204e-009 0)
(130.679 -1.18583e-006 0)
(7.03666 1.72098e-005 0)
(0.357603 -0.00316955 0)
(0.00841559 -6.25738e-013 0)
(0.261672 -9.21056e-012 0)
(20.1829 7.17196e-009 0)
(130.679 -2.35475e-006 0)
(7.03657 6.01951e-005 0)
(0.357511 -0.00791744 0)
(0.00841559 -2.90387e-013 0)
(0.261672 -1.78246e-012 0)
(20.1829 5.5567e-009 0)
(130.679 -1.62661e-006 0)
(7.03608 4.85698e-005 0)
(0.370436 -0.00596348 0)
(0.00841559 -1.32312e-013 0)
(0.261672 -3.25105e-013 0)
(20.1829 1.55732e-010 0)
(130.679 -1.00834e-007 0)
(7.03604 1.26186e-006 0)
(0.370471 -0.000252487 0)
(0.00841559 8.9474e-014 0)
(0.261672 1.49542e-013 0)
(20.1829 2.09217e-011 0)
(130.679 -1.44663e-008 0)
(7.03602 1.88677e-007 0)
(0.370484 -4.08039e-005 0)
(0.00841559 5.79946e-014 0)
(0.261672 -2.78014e-014 0)
(20.1829 4.65221e-014 0)
(130.679 -1.36971e-010 0)
(7.03602 1.07921e-009 0)
(0.370484 -3.35993e-007 0)
(0.00841559 -2.54648e-014 0)
(0.261672 7.21669e-014 0)
(20.1829 7.50499e-014 0)
(130.679 -5.7815e-012 0)
(7.03602 4.5981e-011 0)
(0.370484 -1.55726e-008 0)
(0.0162596 -1.33798e-006 0)
(0.00293355 -4.86917e-007 0)
(0.0163384 -1.34121e-006 0)
(0.00293374 -5.74899e-007 0)
(0.0163652 -2.15493e-007 0)
(0.00293383 -8.8919e-008 0)
(0.0163656 -2.574e-009 0)
(0.00293384 -9.78026e-010 0)
(0.0163656 -1.15201e-010 0)
(0.00293384 -4.22333e-011 0)
(1.18764e-009 -6.2779e-008 0)
(1.19045e-009 -5.26416e-010 0)
(2.81493e-012 -2.17017e-011 0)
(1.62063e-008 -6.05702e-007 0)
(1.62476e-008 -5.52106e-009 0)
(4.13212e-011 -2.15324e-010 0)
(1.02993e-007 -4.93962e-006 0)
(1.03279e-007 -5.06118e-008 0)
(2.86264e-010 -1.56505e-009 0)
(5.72438e-007 -1.65457e-005 0)
(5.74234e-007 -1.8817e-007 0)
(1.79585e-009 -5.14127e-009 0)
(1.43874e-006 -5.59024e-005 0)
(1.44368e-006 -7.27188e-007 0)
(4.96237e-009 -1.27644e-008 0)
(0.00014019 -4.4717e-005 0)
(8.01732e-006 -5.94216e-007 0)
(3.25656e-008 -9.31837e-009 0)
(0.000140136 -1.12989e-006 0)
(8.34363e-006 -1.11101e-008 0)
(3.35637e-008 -3.73357e-010 0)
(0.000140126 -1.67122e-007 0)
(8.44375e-006 -1.53643e-009 0)
(3.38474e-008 -5.00406e-011 0)
(0.000140127 -9.70314e-010 0)
(8.44475e-006 -7.44235e-012 0)
(3.38497e-008 -4.57115e-013 0)
(0.000140127 -4.11339e-011 0)
(8.44483e-006 -2.39534e-013 0)
(3.38498e-008 -4.94423e-014 0)
)
;

boundaryField
{
    inlet
    {
        type            zeroGradient;
    }
    outlet
    {
        type            zeroGradient;
    }
    bottom
    {
        type            symmetryPlane;
    }
    top
    {
        type            symmetryPlane;
    }
    obstacle
    {
        type            zeroGradient;
    }
    defaultFaces
    {
        type            empty;
    }
}


// ************************************************************************* //
