/*--------------------------------*- C++ -*----------------------------------*\
| =========                 |                                                 |
| \\      /  F ield         | OpenFOAM: The Open Source CFD Toolbox           |
|  \\    /   O peration     | Version:  5.x                                   |
|   \\  /    A nd           | Web:      www.OpenFOAM.org                      |
|    \\/     M anipulation  |                                                 |
\*---------------------------------------------------------------------------*/
/*   Windows 32 and 64 bit porting by blueCAPE: http://www.bluecape.com.pt   *\
|  Based on Windows porting (2.0.x v4) by Symscape: http://www.symscape.com   |
\*---------------------------------------------------------------------------*/
FoamFile
{
    version     2.0;
    format      ascii;
    class       volScalarField;
    location    "0.009";
    object      mag(U);
}
// * * * * * * * * * * * * * * * * * * * * * * * * * * * * * * * * * * * * * //

dimensions      [0 1 -1 0 0 0 0];

internalField   nonuniform List<scalar> 
100
(
24.3083
84.3244
166.531
226.414
258.523
272.213
24.3081
84.3257
166.527
226.471
258.544
272.108
24.3079
84.3272
166.523
226.537
258.56
272.082
24.3077
84.3283
166.519
226.596
258.576
272.264
24.3076
84.3292
166.516
226.647
258.591
272.677
24.3073
84.3312
166.51
226.746
258.584
279.22
24.3064
84.3365
166.492
226.891
258.577
278.794
24.3044
84.3491
166.452
227.131
258.894
278.52
24.2988
84.3671
166.332
227.363
259.261
278.08
24.2925
84.3776
166.2
227.247
259.115
277.459
288.593
301.03
287.701
300.396
287.192
300
286.662
298.53
285.981
297.281
127.434
162.392
148.733
248.552
261.554
206.872
332.102
339.48
266.547
355.054
361.255
286.546
348.871
357.23
286.015
313.317
340.998
280.418
312.101
339.266
274.473
311.738
337.265
274.182
308.793
333.782
275.915
306.677
330.574
274.461
)
;

boundaryField
{
    inlet
    {
        type            calculated;
        value           nonuniform List<scalar> 10(24.3073 24.3064 24.3044 24.2988 24.2925 24.3083 24.3081 24.3079 24.3077 24.3076);
    }
    outlet
    {
        type            calculated;
        value           nonuniform List<scalar> 10(280.418 274.473 274.182 275.915 274.461 148.733 206.872 266.547 286.546 286.015);
    }
    bottom
    {
        type            symmetryPlane;
    }
    top
    {
        type            symmetryPlane;
    }
    obstacle
    {
        type            calculated;
        value           nonuniform List<scalar> 
12
(
272.213
272.108
272.082
272.264
272.677
127.434
248.552
332.102
355.054
348.871
288.593
301.03
)
;
    }
    defaultFaces
    {
        type            empty;
    }
}


// ************************************************************************* //
