/*--------------------------------*- C++ -*----------------------------------*\
| =========                 |                                                 |
| \\      /  F ield         | OpenFOAM: The Open Source CFD Toolbox           |
|  \\    /   O peration     | Version:  5.x                                   |
|   \\  /    A nd           | Web:      www.OpenFOAM.org                      |
|    \\/     M anipulation  |                                                 |
\*---------------------------------------------------------------------------*/
/*   Windows 32 and 64 bit porting by blueCAPE: http://www.bluecape.com.pt   *\
|  Based on Windows porting (2.0.x v4) by Symscape: http://www.symscape.com   |
\*---------------------------------------------------------------------------*/
FoamFile
{
    version     2.0;
    format      ascii;
    class       volScalarField;
    location    "0.009";
    object      p;
}
// * * * * * * * * * * * * * * * * * * * * * * * * * * * * * * * * * * * * * //

dimensions      [1 -1 -2 0 0 0 0];

internalField   nonuniform List<scalar> 
100
(
87763
71282.1
51107.9
39687.1
33343.9
31566.5
87763
71282.3
51107.3
39689.1
33318.6
31641.9
87763
71282.4
51106.7
39691.3
33288
31720.1
87762.9
71282.5
51106.1
39692.9
33262.5
31781.1
87762.9
71282.6
51105.8
39694.1
33243.9
31826
87762.9
71282.7
51104.9
39696.5
33195.7
31931.8
87762.8
71283.2
51103.1
39700.4
33143
32049.6
87762.6
71284
51099
39678.2
33122.7
32116
87762.3
71288.1
51077.7
39670.7
33017.9
31962.2
87761.7
71299
51070
39720.1
32959.7
31847.2
30586.6
29613.6
30867.8
29898.4
31013.7
30094.6
30818.6
29879.6
30644.8
29689.5
28909.8
28912.6
28222.9
28907.3
28935.3
28134.2
28958.6
28985.8
28085.2
28922.7
28958.4
28043.9
28915.4
28960
28020
28776.9
28892.1
27955.3
28632.8
28711.5
27914.3
28696.5
28662.7
27701.3
28582.1
28453.6
26740.6
28450.3
28290.8
26338.6
)
;

boundaryField
{
    inlet
    {
        type            zeroGradient;
    }
    outlet
    {
        type            zeroGradient;
    }
    bottom
    {
        type            symmetryPlane;
    }
    top
    {
        type            symmetryPlane;
    }
    obstacle
    {
        type            zeroGradient;
    }
    defaultFaces
    {
        type            empty;
    }
}


// ************************************************************************* //
