/*--------------------------------*- C++ -*----------------------------------*\
| =========                 |                                                 |
| \\      /  F ield         | OpenFOAM: The Open Source CFD Toolbox           |
|  \\    /   O peration     | Version:  5.x                                   |
|   \\  /    A nd           | Web:      www.OpenFOAM.org                      |
|    \\/     M anipulation  |                                                 |
\*---------------------------------------------------------------------------*/
/*   Windows 32 and 64 bit porting by blueCAPE: http://www.bluecape.com.pt   *\
|  Based on Windows porting (2.0.x v4) by Symscape: http://www.symscape.com   |
\*---------------------------------------------------------------------------*/
FoamFile
{
    version     2.0;
    format      ascii;
    class       surfaceScalarField;
    location    "0.009";
    object      phi;
}
// * * * * * * * * * * * * * * * * * * * * * * * * * * * * * * * * * * * * * //

dimensions      [1 0 -1 0 0 0 0];

internalField   nonuniform List<scalar> 
174
(
14.2919
0.00418652
21.1632
-0.0243886
24.3508
0.0824034
22.2576
-0.0664449
18.979
0.573828
0.198515
9.55766
0.00687724
14.1525
-0.0403682
16.2879
0.133752
14.8821
-0.107101
12.7026
0.967951
0.306031
6.39166
0.0085975
9.46422
-0.0508159
10.895
0.16493
9.94987
-0.132035
8.50565
1.23567
0.371474
4.2744
0.00970499
6.32903
-0.0576672
7.28725
0.184012
6.65365
-0.14911
5.70141
1.41609
0.412756
2.85848
0.0104258
4.23245
-0.0621806
4.87367
0.196059
4.45154
-0.163295
3.82616
1.53788
0.439778
12.1327
0.0132296
17.9641
-0.0809627
20.6929
0.238045
18.8809
-0.215605
17.2321
1.19383
0.77355
15.4757
21.5763
0.0170711
31.9437
-0.111178
36.8168
0.28524
33.5588
-0.314402
30.615
0.824169
0.860898
27.7682
38.3727
0.0189583
56.7976
-0.14705
65.5212
0.256569
59.6852
-0.547621
54.3081
0.467249
0.564157
49.3004
68.2446
0.0139443
100.951
-0.118169
116.581
0.116632
106.114
-0.500514
95.8892
-0.0296552
-0.0278859
86.2531
121.353
179.425
207.235
188.578
169.567
151.657
15.161
0.150173
0.115097
14.9681
26.9837
0.182774
0.142157
26.6824
47.9265
0.147381
0.153473
47.3684
83.7784
-0.00146319
-0.00305834
82.7997
147.321
145.386
7.01379
-0.0725536
8.79094
-0.662551
-1.87316
8.29977
0.00266119
8.75357
-0.516598
-1.87498
7.04498
0.0426466
7.29864
-0.374053
-1.49526
5.00302
0.110833
5.24725
-0.350014
-1.26366
3.3781
0.176918
3.55096
-0.381192
-1.17128
14.5651
0.243594
14.9126
-1.13708
-1.16413
26.3459
0.121176
26.0092
-1.69235
-0.666925
46.7546
0.140331
45.33
-1.15267
-3.12205
81.8585
-0.0573801
80.0706
-1.09634
-5.2183
143.653
140.849
)
;

boundaryField
{
    inlet
    {
        type            calculated;
        value           nonuniform List<scalar> 10(-3.59234 -6.38795 -11.3586 -20.194 -35.901 -4.23205 -2.83012 -1.8926 -1.26565 -0.846385);
    }
    outlet
    {
        type            calculated;
        value           nonuniform List<scalar> 10(10.777 18.9001 33.5174 58.4584 102.419 7.1312 6.37025 5.27871 3.81666 2.57244);
    }
    bottom
    {
        type            symmetryPlane;
        value           uniform 0;
    }
    top
    {
        type            symmetryPlane;
        value           uniform 0;
    }
    obstacle
    {
        type            calculated;
        value           nonuniform List<scalar> 
12
(
17.3664
11.6276
7.78759
5.22074
3.50247
-6.57971
-8.20461
-6.96045
-4.994
-3.38832
-0.182396
-0.159706
)
;
    }
    defaultFaces
    {
        type            empty;
        value           nonuniform 0();
    }
}


// ************************************************************************* //
