/*--------------------------------*- C++ -*----------------------------------*\
| =========                 |                                                 |
| \\      /  F ield         | OpenFOAM: The Open Source CFD Toolbox           |
|  \\    /   O peration     | Version:  5.x                                   |
|   \\  /    A nd           | Web:      www.OpenFOAM.org                      |
|    \\/     M anipulation  |                                                 |
\*---------------------------------------------------------------------------*/
/*   Windows 32 and 64 bit porting by blueCAPE: http://www.bluecape.com.pt   *\
|  Based on Windows porting (2.0.x v4) by Symscape: http://www.symscape.com   |
\*---------------------------------------------------------------------------*/
FoamFile
{
    version     2.0;
    format      ascii;
    class       volScalarField;
    location    "0.009";
    object      T;
}
// * * * * * * * * * * * * * * * * * * * * * * * * * * * * * * * * * * * * * //

dimensions      [0 0 0 1 0 0 0];

internalField   nonuniform List<scalar> 
100
(
334.424
321.485
273.783
275.973
285.539
328.782
334.424
321.485
273.78
275.97
285.532
329.046
334.424
321.485
273.776
275.967
285.514
329.334
334.424
321.485
273.772
275.98
285.402
329.377
334.424
321.485
273.766
276.026
285.066
329.291
334.424
321.485
273.76
276.047
285.288
305.599
334.424
321.484
273.75
276.047
285.319
306.317
334.424
321.482
273.737
275.972
285.585
307.848
334.424
321.48
273.717
275.871
285.751
308.633
334.424
321.488
273.729
275.905
285.795
308.875
332.072
338.146
333.811
340.242
336.584
342.575
337.616
343.309
337.853
343.295
371.756
368.948
391.01
389.198
385.103
406.02
410.661
403.995
421.446
408.709
400.457
418.449
395.727
389.63
414.061
349.221
371.958
410.332
346.425
372.163
406.668
347.967
372.782
404.227
348.577
371.721
400.142
348.776
370.988
398.061
)
;

boundaryField
{
    inlet
    {
        type            zeroGradient;
    }
    outlet
    {
        type            zeroGradient;
    }
    bottom
    {
        type            symmetryPlane;
    }
    top
    {
        type            symmetryPlane;
    }
    obstacle
    {
        type            zeroGradient;
    }
    defaultFaces
    {
        type            empty;
    }
}


// ************************************************************************* //
