/*--------------------------------*- C++ -*----------------------------------*\
| =========                 |                                                 |
| \\      /  F ield         | OpenFOAM: The Open Source CFD Toolbox           |
|  \\    /   O peration     | Version:  5.x                                   |
|   \\  /    A nd           | Web:      www.OpenFOAM.org                      |
|    \\/     M anipulation  |                                                 |
\*---------------------------------------------------------------------------*/
/*   Windows 32 and 64 bit porting by blueCAPE: http://www.bluecape.com.pt   *\
|  Based on Windows porting (2.0.x v4) by Symscape: http://www.symscape.com   |
\*---------------------------------------------------------------------------*/
FoamFile
{
    version     2.0;
    format      ascii;
    class       volVectorField;
    location    "0.009";
    object      U;
}
// * * * * * * * * * * * * * * * * * * * * * * * * * * * * * * * * * * * * * //

dimensions      [0 1 -1 0 0 0 0];

internalField   nonuniform List<vector> 
100
(
(24.3083 0.000479537 0)
(84.3244 -0.0045542 0)
(166.531 0.0256282 0)
(226.414 -0.0362341 0)
(258.522 0.532474 0)
(272.212 0.374643 0)
(24.3081 0.00126163 0)
(84.3257 -0.0120486 0)
(166.527 0.0664266 0)
(226.471 -0.0940634 0)
(258.54 1.40151 0)
(272.107 0.810884 0)
(24.3079 0.00175873 0)
(84.3272 -0.016921 0)
(166.523 0.0910313 0)
(226.537 -0.130294 0)
(258.552 2.0396 0)
(272.08 1.07786 0)
(24.3077 0.00207853 0)
(84.3283 -0.0201171 0)
(166.519 0.106113 0)
(226.596 -0.151473 0)
(258.565 2.43665 0)
(272.262 1.18642 0)
(24.3076 0.00228634 0)
(84.3292 -0.022225 0)
(166.516 0.115599 0)
(226.647 -0.169457 0)
(258.576 2.8194 0)
(272.674 1.34772 0)
(24.3073 0.0026983 0)
(84.3312 -0.0265888 0)
(166.51 0.132784 0)
(226.746 -0.203241 0)
(258.571 2.56275 0)
(279.214 1.90132 0)
(24.3064 0.0034903 0)
(84.3365 -0.0357177 0)
(166.492 0.170641 0)
(226.891 -0.267144 0)
(258.571 1.80844 0)
(278.783 2.461 0)
(24.3044 0.00446331 0)
(84.349 -0.0531554 0)
(166.452 0.175825 0)
(227.131 -0.536644 0)
(258.891 1.24095 0)
(278.511 2.2658 0)
(24.2988 0.00398766 0)
(84.3671 -0.0538849 0)
(166.332 0.102775 0)
(227.362 -0.656185 0)
(259.261 0.0885155 0)
(278.08 0.16025 0)
(24.2925 0.00150079 0)
(84.3776 -0.0213867 0)
(166.2 0.0245385 0)
(227.247 -0.269718 0)
(259.115 -0.287221 0)
(277.459 -0.472021 0)
(288.584 2.24077 0)
(301.023 2.05808 0)
(287.695 1.94874 0)
(300.394 1.20506 0)
(287.181 2.51117 0)
(299.987 2.72258 0)
(286.662 0.265991 0)
(298.53 0.277189 0)
(285.98 -0.50365 0)
(297.281 -0.574092 0)
(127.31 -5.61758 0)
(162.239 -7.03995 0)
(148.672 -4.26431 0)
(248.544 1.96901 0)
(261.554 -0.0406208 0)
(206.866 -1.62727 0)
(332.1 -1.2079 0)
(339.468 -2.83451 0)
(266.532 -2.77102 0)
(355.051 1.53206 0)
(361.254 -0.869344 0)
(286.541 -1.63131 0)
(348.867 1.6431 0)
(357.227 -1.42385 0)
(286.011 -1.62047 0)
(313.294 3.86323 0)
(340.988 -2.67669 0)
(280.411 -2.01312 0)
(312.1 0.875564 0)
(339.188 -7.25246 0)
(274.473 -0.17682 0)
(311.727 2.56095 0)
(337.241 -4.01719 0)
(274.173 -2.23685 0)
(308.792 -0.516111 0)
(333.738 -5.42911 0)
(275.767 -9.03438 0)
(306.676 -0.858692 0)
(330.566 -2.32437 0)
(274.41 -5.2962 0)
)
;

boundaryField
{
    inlet
    {
        type            zeroGradient;
    }
    outlet
    {
        type            zeroGradient;
    }
    bottom
    {
        type            symmetryPlane;
    }
    top
    {
        type            symmetryPlane;
    }
    obstacle
    {
        type            zeroGradient;
    }
    defaultFaces
    {
        type            empty;
    }
}


// ************************************************************************* //
