/*--------------------------------*- C++ -*----------------------------------*\
| =========                 |                                                 |
| \\      /  F ield         | OpenFOAM: The Open Source CFD Toolbox           |
|  \\    /   O peration     | Version:  5.x                                   |
|   \\  /    A nd           | Web:      www.OpenFOAM.org                      |
|    \\/     M anipulation  |                                                 |
\*---------------------------------------------------------------------------*/
/*   Windows 32 and 64 bit porting by blueCAPE: http://www.bluecape.com.pt   *\
|  Based on Windows porting (2.0.x v4) by Symscape: http://www.symscape.com   |
\*---------------------------------------------------------------------------*/
FoamFile
{
    version     2.0;
    format      ascii;
    class       volScalarField;
    location    "0.004";
    object      mag(U);
}
// * * * * * * * * * * * * * * * * * * * * * * * * * * * * * * * * * * * * * //

dimensions      [0 1 -1 0 0 0 0];

internalField   nonuniform List<scalar> 
100
(
5.34219
32.367
115.665
241.141
296.82
211.502
4.97913
29.588
111.928
246.883
306.413
222.866
4.89286
28.8074
109.88
237.904
303.334
239.079
4.79696
28.0134
109.025
240.029
306.839
247.446
4.73919
27.482
107.955
237.314
306.864
262.881
4.62286
26.603
107.308
240.333
311.062
284.689
4.82389
28.3255
109.539
243.341
310.255
271.129
4.54806
26.2571
106.7
241.727
312.681
282.452
4.74757
27.9376
108.117
242.393
310.939
273.235
4.70726
27.61
107.869
242.9
311.735
272.35
245.349
211.261
228.731
190.439
245.052
205.982
233.806
193.251
232.442
191.557
15.989
14.2211
0.114963
41.9399
16.5806
0.681482
67.5791
20.9782
1.17497
103.268
26.5798
1.62829
140.89
34.4469
2.0101
170.589
48.0271
2.81613
147.268
51.3597
3.05601
154.696
58.8543
3.69319
143.453
55.8611
3.50447
140.884
53.9893
3.3484
)
;

boundaryField
{
    inlet
    {
        type            calculated;
        value           nonuniform List<scalar> 10(4.62286 4.82389 4.54806 4.74757 4.70726 5.34219 4.97913 4.89286 4.79696 4.73919);
    }
    outlet
    {
        type            calculated;
        value           nonuniform List<scalar> 10(2.81613 3.05601 3.69319 3.50447 3.3484 0.114963 0.681482 1.17497 1.62829 2.0101);
    }
    bottom
    {
        type            symmetryPlane;
    }
    top
    {
        type            symmetryPlane;
    }
    obstacle
    {
        type            calculated;
        value           nonuniform List<scalar> 
12
(
211.502
222.866
239.079
247.446
262.881
15.989
41.9399
67.5791
103.268
140.89
245.349
211.261
)
;
    }
    defaultFaces
    {
        type            empty;
    }
}


// ************************************************************************* //
