/*--------------------------------*- C++ -*----------------------------------*\
| =========                 |                                                 |
| \\      /  F ield         | OpenFOAM: The Open Source CFD Toolbox           |
|  \\    /   O peration     | Version:  5.x                                   |
|   \\  /    A nd           | Web:      www.OpenFOAM.org                      |
|    \\/     M anipulation  |                                                 |
\*---------------------------------------------------------------------------*/
/*   Windows 32 and 64 bit porting by blueCAPE: http://www.bluecape.com.pt   *\
|  Based on Windows porting (2.0.x v4) by Symscape: http://www.symscape.com   |
\*---------------------------------------------------------------------------*/
FoamFile
{
    version     2.0;
    format      ascii;
    class       volScalarField;
    location    "0.004";
    object      p;
}
// * * * * * * * * * * * * * * * * * * * * * * * * * * * * * * * * * * * * * //

dimensions      [1 -1 -2 0 0 0 0];

internalField   nonuniform List<scalar> 
100
(
98359.4
85447
61569.7
38886.9
30036.1
20296.6
98482.7
86117
63211.3
40878.6
31825.9
21539.2
98519.7
86321
63667
41422.5
32287.6
21873.3
98557.4
86538.8
64238.8
42119
32916.1
22341.2
98580.8
86662.6
64527.8
42454.9
33265.2
22579.6
98623.9
86925.7
65240.5
43288.7
34012.3
22964.2
98566.5
86485.9
64133.3
42039.8
32779.5
22885.3
98695.7
87230
66543.9
43999.6
35514.7
24495.2
98597.3
86513.8
63619.3
42052.1
33342.6
23775.4
98626.7
86814
64906.7
43862.7
34653.5
24511.3
20757.5
19330.6
21198.3
19988.5
22467.6
21269.4
22120.2
21063.9
22519.3
21263.5
12325.9
10204
10045.7
12820.6
10543
10050
13287.5
10813.6
10061.9
13691.6
11053.4
10072.1
14213.5
11223.9
10082.7
15472.5
11436.1
10100.5
17062.6
11638.7
10111.7
18451.2
12025.3
10134.9
18497.2
11997.2
10131.1
18457.6
11939.7
10125.8
)
;

boundaryField
{
    inlet
    {
        type            zeroGradient;
    }
    outlet
    {
        type            zeroGradient;
    }
    bottom
    {
        type            symmetryPlane;
    }
    top
    {
        type            symmetryPlane;
    }
    obstacle
    {
        type            zeroGradient;
    }
    defaultFaces
    {
        type            empty;
    }
}


// ************************************************************************* //
