/*--------------------------------*- C++ -*----------------------------------*\
| =========                 |                                                 |
| \\      /  F ield         | OpenFOAM: The Open Source CFD Toolbox           |
|  \\    /   O peration     | Version:  5.x                                   |
|   \\  /    A nd           | Web:      www.OpenFOAM.org                      |
|    \\/     M anipulation  |                                                 |
\*---------------------------------------------------------------------------*/
/*   Windows 32 and 64 bit porting by blueCAPE: http://www.bluecape.com.pt   *\
|  Based on Windows porting (2.0.x v4) by Symscape: http://www.symscape.com   |
\*---------------------------------------------------------------------------*/
FoamFile
{
    version     2.0;
    format      ascii;
    class       surfaceScalarField;
    location    "0.004";
    object      phi;
}
// * * * * * * * * * * * * * * * * * * * * * * * * * * * * * * * * * * * * * //

dimensions      [1 0 -1 0 0 0 0];

internalField   nonuniform List<scalar> 
174
(
5.2284
-0.533462
17.873
-0.903959
26.3346
0.376015
20.3506
-0.545138
11.6092
0.51025
-0.566282
3.00862
-0.523702
10.2762
-0.57256
15.7373
0.973036
12.5777
-0.750339
7.13246
0.591903
-1.18646
2.03172
-0.568302
7.31206
-0.810703
11.3413
0.92126
9.36662
-1.01454
5.54926
0.851875
-1.61523
1.29092
-0.552397
4.63426
-0.831376
7.26225
0.952575
6.07069
-1.29024
3.69284
0.87762
-1.89073
0.857691
-0.544802
3.15365
-0.913991
4.98861
0.926733
4.21256
-1.48399
2.65861
0.873768
-2.07837
3.46749
-0.397275
12.8892
-1.07758
20.9858
0.415056
17.5715
-1.94424
11.5141
0.29034
-2.14659
8.26448
6.60446
-0.501494
23.4609
-1.45497
37.1948
-0.886185
30.4767
-3.58075
19.3844
-1.08991
-2.6826
13.9049
10.817
-0.200153
40.1008
-1.41985
67.5337
-4.01248
56.9292
-4.58153
37.5399
-2.19365
-1.24477
27.4529
20.5364
0.227961
73.7694
1.51864
116.651
5.74186
97.0557
3.83567
62.6806
3.14628
1.43404
46.1586
36.115
130.443
212.148
178.581
114.096
82.9873
7.23494
-0.789235
-0.767383
6.19893
12.1378
-0.758931
-0.83295
9.90969
24.2264
-0.295669
-0.214553
19.5694
40.4719
0.356696
0.278824
32.4426
72.3111
57.2151
0.387899
-1.42278
0.210622
-0.428754
-0.0313954
-0.0624133
-2.55333
0.124672
-1.40681
-0.110494
-0.0577109
-3.34866
0.0905685
-2.27921
-0.198725
0.123425
-3.79772
0.0678565
-2.79369
-0.274493
0.419686
-4.11643
0.0728366
-2.82521
-0.312111
3.10949
-2.58135
0.589258
-2.02484
-0.277996
5.53051
-1.65827
1.18002
-1.25614
-0.17607
11.3189
-0.275453
2.47872
-0.192051
-0.0242681
18.9062
0.229907
4.14805
0.127353
0.0171182
32.7659
7.07332
)
;

boundaryField
{
    inlet
    {
        type            calculated;
        value           nonuniform List<scalar> 10(-0.692685 -1.28828 -2.15899 -4.00493 -7.07207 -0.943531 -0.588943 -0.38724 -0.253827 -0.167683);
    }
    outlet
    {
        type            calculated;
        value           nonuniform List<scalar> 10(0.0444306 0.0907696 0.196572 0.329157 0.556923 0.00132436 0.00805205 0.00969788 0.0090799 0.00771188);
    }
    bottom
    {
        type            symmetryPlane;
        value           uniform 0;
    }
    top
    {
        type            symmetryPlane;
        value           uniform 0;
    }
    obstacle
    {
        type            calculated;
        value           nonuniform List<scalar> 
12
(
8.84496
5.19375
4.24574
2.77776
2.05174
-0.0462613
0.374997
0.293071
-0.0293683
-0.361299
0.944919
0.654559
)
;
    }
    defaultFaces
    {
        type            empty;
        value           nonuniform 0();
    }
}


// ************************************************************************* //
