/*--------------------------------*- C++ -*----------------------------------*\
| =========                 |                                                 |
| \\      /  F ield         | OpenFOAM: The Open Source CFD Toolbox           |
|  \\    /   O peration     | Version:  5.x                                   |
|   \\  /    A nd           | Web:      www.OpenFOAM.org                      |
|    \\/     M anipulation  |                                                 |
\*---------------------------------------------------------------------------*/
/*   Windows 32 and 64 bit porting by blueCAPE: http://www.bluecape.com.pt   *\
|  Based on Windows porting (2.0.x v4) by Symscape: http://www.symscape.com   |
\*---------------------------------------------------------------------------*/
FoamFile
{
    version     2.0;
    format      ascii;
    class       volScalarField;
    location    "0.004";
    object      T;
}
// * * * * * * * * * * * * * * * * * * * * * * * * * * * * * * * * * * * * * //

dimensions      [0 0 0 1 0 0 0];

internalField   nonuniform List<scalar> 
100
(
346.709
333.272
291.336
334.124
381.674
364.478
346.848
333.996
292.201
338.46
382.212
366.34
346.886
334.288
292.715
337.062
385.039
371.789
346.928
334.516
293.128
339.421
386.708
373.5
346.953
334.686
293.256
339.309
389.829
376.69
347.001
334.925
295.068
341.372
388.104
377.422
346.937
334.423
294.618
339.386
384.223
376.241
347.074
335.288
296.471
342.656
393.644
383.349
346.969
334.458
293.338
339.273
387.692
379.743
347
334.8
294.837
343.183
391.973
382.854
352.708
337.63
354.585
342.104
361.725
348.792
359.929
347.693
361.38
348.536
296.073
280.411
279.11
299.234
282.94
279.146
302.83
285.023
279.242
308.2
286.935
279.324
314.27
289.438
279.415
319.189
291.71
279.58
327.356
293.149
279.681
334.088
296.249
279.886
334.413
295.826
279.849
334.213
295.302
279.801
)
;

boundaryField
{
    inlet
    {
        type            zeroGradient;
    }
    outlet
    {
        type            zeroGradient;
    }
    bottom
    {
        type            symmetryPlane;
    }
    top
    {
        type            symmetryPlane;
    }
    obstacle
    {
        type            zeroGradient;
    }
    defaultFaces
    {
        type            empty;
    }
}


// ************************************************************************* //
