/*--------------------------------*- C++ -*----------------------------------*\
| =========                 |                                                 |
| \\      /  F ield         | OpenFOAM: The Open Source CFD Toolbox           |
|  \\    /   O peration     | Version:  5.x                                   |
|   \\  /    A nd           | Web:      www.OpenFOAM.org                      |
|    \\/     M anipulation  |                                                 |
\*---------------------------------------------------------------------------*/
/*   Windows 32 and 64 bit porting by blueCAPE: http://www.bluecape.com.pt   *\
|  Based on Windows porting (2.0.x v4) by Symscape: http://www.symscape.com   |
\*---------------------------------------------------------------------------*/
FoamFile
{
    version     2.0;
    format      ascii;
    class       volVectorField;
    location    "0.004";
    object      U;
}
// * * * * * * * * * * * * * * * * * * * * * * * * * * * * * * * * * * * * * //

dimensions      [0 1 -1 0 0 0 0];

internalField   nonuniform List<vector> 
100
(
(5.32055 0.480341 0)
(32.052 4.50461 0)
(114.058 19.2177 0)
(238.085 38.2686 0)
(292.298 51.6158 0)
(208.642 34.6657 0)
(4.97281 -0.250704 0)
(29.516 -2.06302 0)
(111.583 -8.79038 -4.48434e-018)
(246.068 -20.0406 1.09404e-017)
(305.587 -22.4868 0)
(221.961 -20.0696 3.59935e-017)
(4.89123 0.126174 0)
(28.7584 1.67971 0)
(109.589 7.99618 0)
(237.522 13.4721 0)
(302.614 20.8938 0)
(238.956 7.66042 1.35051e-017)
(4.79594 -0.0988743 0)
(28.0077 -0.563447 -1.13474e-018)
(109.008 -1.93751 1.83168e-018)
(239.936 -6.71117 0)
(306.818 -3.63942 0)
(247.221 -10.5512 1.00726e-017)
(4.73896 0.0459464 -3.51454e-019)
(27.4715 0.756275 5.29219e-019)
(107.883 3.95496 0)
(237.27 4.5774 -3.27883e-018)
(306.651 11.4335 6.5602e-018)
(262.879 -1.12346 7.4351e-018)
(4.61391 -0.287536 0)
(26.538 -1.85856 0)
(107.156 -5.70393 0)
(239.953 -13.5098 0)
(310.777 -13.3166 0)
(283.755 -23.0334 0)
(4.82357 0.0550483 0)
(28.3079 0.997892 0)
(109.342 6.56089 0)
(243.173 9.02683 0)
(309.925 14.2976 0)
(271.128 -0.871748 0)
(4.5437 -0.199166 0)
(26.1851 -1.94296 0)
(106.309 -9.1299 0)
(240.9 -19.9854 0)
(311.84 -22.9175 0)
(281.649 -21.2765 0)
(4.74611 0.117723 0)
(27.9123 1.19086 0)
(107.881 7.13593 0)
(242.148 10.9055 0)
(310.521 16.1122 0)
(272.94 12.7021 0)
(4.70725 -0.00968779 0)
(27.6096 -0.142371 0)
(107.866 -0.807341 0)
(242.9 -0.325432 0)
(311.732 1.30769 0)
(272.346 1.55516 0)
(244.591 -19.2757 0)
(210.768 -14.4107 0)
(228.608 -7.49429 0)
(190.007 -12.8316 0)
(244.408 -17.7534 0)
(205.541 -13.4644 0)
(233.563 10.6646 0)
(193.081 8.1041 0)
(232.436 1.66358 0)
(191.551 1.53618 0)
(12.9908 -9.32135 1.13327e-016)
(13.5525 4.30934 -4.12311e-017)
(0.11463 -0.00873476 0)
(17.602 -38.0673 8.23829e-017)
(16.0303 -4.23624 1.2768e-017)
(0.681482 1.22169e-005 -4.20686e-018)
(33.9771 -58.4166 0)
(19.0901 -8.69794 0)
(1.17103 -0.0960744 0)
(72.1345 -73.8975 3.85356e-017)
(22.818 -13.6317 -7.95772e-018)
(1.60785 -0.25723 0)
(122.469 -69.6518 1.33496e-017)
(31.7142 -13.446 0)
(1.99963 -0.204903 0)
(161.664 -54.4544 0)
(44.0842 -19.0575 0)
(2.63725 -0.987662 0)
(144.081 -30.474 0)
(50.6108 -8.73848 0)
(3.02519 -0.432945 0)
(154.261 -11.5916 0)
(58.7487 -3.52535 0)
(3.68912 -0.173368 0)
(143.381 4.54213 0)
(55.8505 1.08656 0)
(3.5041 0.0511498 0)
(140.879 1.19529 0)
(53.9883 0.334157 0)
(3.34835 0.0174453 0)
)
;

boundaryField
{
    inlet
    {
        type            zeroGradient;
    }
    outlet
    {
        type            zeroGradient;
    }
    bottom
    {
        type            symmetryPlane;
    }
    top
    {
        type            symmetryPlane;
    }
    obstacle
    {
        type            zeroGradient;
    }
    defaultFaces
    {
        type            empty;
    }
}


// ************************************************************************* //
