/*--------------------------------*- C++ -*----------------------------------*\
| =========                 |                                                 |
| \\      /  F ield         | OpenFOAM: The Open Source CFD Toolbox           |
|  \\    /   O peration     | Version:  5.x                                   |
|   \\  /    A nd           | Web:      www.OpenFOAM.org                      |
|    \\/     M anipulation  |                                                 |
\*---------------------------------------------------------------------------*/
/*   Windows 32 and 64 bit porting by blueCAPE: http://www.bluecape.com.pt   *\
|  Based on Windows porting (2.0.x v4) by Symscape: http://www.symscape.com   |
\*---------------------------------------------------------------------------*/
FoamFile
{
    version     2.0;
    format      ascii;
    class       volScalarField;
    location    "0.008";
    object      p;
}
// * * * * * * * * * * * * * * * * * * * * * * * * * * * * * * * * * * * * * //

dimensions      [1 -1 -2 0 0 0 0];

internalField   nonuniform List<scalar> 
1000
(
100000
100000
100000
100000
100000
100000
100000
100000
100000
100000
100000
100000
100000
100000
100000
100000
100000
100000
100000
100000
100000
100000
100000
100000
100000
100000
100000
100000
100000
100000
100000
100000
100000
100000
100000
100000
100000
100000
100000
100000
100000
100000
100000
100000
100000
100000
100000
100000
100000
100000
100000
100000
99999.9
99999.9
99999.8
99999.6
99999.4
99998.9
99998
99996.6
99994.3
99990.5
99984.5
99975.1
99960.6
99938.7
99906.5
99860.1
99794.6
99704.4
99583.2
99424.3
99221.3
98968.5
98661.5
98298
97877.8
97403.3
96878.8
96310.2
95703.7
95065.3
94400.7
93714.6
93011.2
92294.1
91566.2
90829.8
90087
89339.4
88588.3
87834.8
87079.9
86324.3
85568.7
84813.6
84059.6
83306.9
82556.1
81807.4
81061
80317.3
79576.5
78838.8
78104.4
77373.5
76646.2
75922.6
75203
74487.5
73776.1
73069
72366.3
71668.1
70974.4
70285.4
69601
68921.5
68246.8
67577
66912.1
66252.2
65597.3
64947.4
64302.6
63662.9
63028.2
62398.7
61774.3
61155
60540.9
59931.9
59328
58729.3
58135.7
57547.3
56963.9
56385.7
55812.6
55244.5
54681.6
54123.7
53570.9
53023.1
52480.5
51942.6
51410.2
50882.2
50359.9
49841.9
49329.3
48821.5
48318.6
47820.8
47327.7
46839.7
46356.6
45878.3
45405.1
44936.7
44473.3
44014.9
43561.3
43112.8
42669.3
42230.8
41797.3
41368.9
40945.7
40527.6
40114.8
39707.3
39305.2
38908.5
38517.4
38132
37752.5
37378.8
37011.3
36650.1
36295.4
35947.4
35606.3
35272.6
34946.4
34628.1
34318
34016.6
33724.4
33441.7
33169.1
32907.1
32656.2
32417.1
32190.2
31976.2
31775.6
31588.8
31416.3
31258.4
31115.2
30986.9
30873.2
30773.9
30688.4
30616
30555.8
30506.6
30467.4
30436.7
30413.4
30396
30383.6
30374.7
30369
30364.8
30362.2
30360.6
30359.4
30358.6
30357.9
30357
30356.1
30355.1
30353.9
30352.6
30351.4
30350.2
30348.9
30347.8
30346.8
30345.9
30345.1
30344.5
30343.9
30343.4
30343.1
30342.7
30342.5
30342.2
30342
30341.8
30341.7
30341.5
30341.3
30341.2
30341
30340.8
30340.7
30340.5
30340.3
30340.2
30340
30339.8
30339.5
30339.3
30339
30338.7
30338.5
30338.2
30337.9
30337.7
30337.4
30337.3
30337.1
30337
30336.9
30336.9
30336.9
30336.9
30336.9
30336.9
30337.1
30337.3
30337.7
30338.4
30339.9
30342.3
30346.4
30353
30362.8
30376.3
30394.7
30415.4
30441.7
30467.4
30506.2
30560.3
30540.4
30551.2
30577
30604.9
30612.9
30613.6
30613.3
30611.9
30609
30606.9
30602.7
30602.2
100000
100000
100000
100000
100000
100000
100000
100000
100000
100000
100000
100000
100000
100000
100000
100000
100000
100000
100000
100000
100000
100000
100000
100000
100000
100000
100000
100000
100000
100000
100000
100000
100000
100000
100000
100000
100000
100000
100000
100000
100000
100000
100000
100000
100000
100000
100000
100000
100000
100000
100000
100000
99999.9
99999.9
99999.8
99999.6
99999.4
99998.9
99998
99996.6
99994.3
99990.5
99984.5
99975.1
99960.6
99938.7
99906.5
99860.1
99794.6
99704.4
99583.2
99424.3
99221.3
98968.5
98661.5
98298
97877.8
97403.3
96878.8
96310.2
95703.7
95065.3
94400.7
93714.6
93011.2
92294.1
91566.2
90829.8
90087
89339.4
88588.3
87834.8
87079.9
86324.3
85568.7
84813.6
84059.6
83306.9
82556.1
81807.4
81061
80317.3
79576.5
78838.8
78104.4
77373.5
76646.2
75922.6
75203
74487.5
73776.1
73069
72366.3
71668.1
70974.4
70285.4
69601
68921.5
68246.8
67577
66912.1
66252.2
65597.3
64947.4
64302.6
63662.9
63028.2
62398.7
61774.3
61155
60540.9
59931.9
59328
58729.3
58135.7
57547.3
56963.9
56385.7
55812.6
55244.5
54681.6
54123.7
53570.9
53023.1
52480.5
51942.6
51410.2
50882.2
50359.9
49841.9
49329.3
48821.5
48318.6
47820.8
47327.7
46839.7
46356.6
45878.3
45405.1
44936.7
44473.3
44014.9
43561.3
43112.8
42669.3
42230.8
41797.3
41368.9
40945.7
40527.6
40114.8
39707.3
39305.2
38908.5
38517.4
38132
37752.5
37378.8
37011.3
36650.1
36295.4
35947.4
35606.3
35272.6
34946.4
34628.1
34318
34016.6
33724.4
33441.7
33169.1
32907.1
32656.2
32417.1
32190.2
31976.2
31775.6
31588.8
31416.3
31258.4
31115.2
30986.9
30873.2
30773.9
30688.4
30616
30555.8
30506.6
30467.4
30436.7
30413.4
30396
30383.6
30374.7
30369
30364.8
30362.2
30360.6
30359.4
30358.6
30357.9
30357
30356.1
30355.1
30353.9
30352.6
30351.4
30350.2
30348.9
30347.8
30346.8
30345.9
30345.1
30344.5
30343.9
30343.4
30343.1
30342.7
30342.5
30342.2
30342
30341.8
30341.7
30341.5
30341.3
30341.2
30341
30340.8
30340.7
30340.5
30340.3
30340.2
30340
30339.8
30339.5
30339.3
30339
30338.7
30338.5
30338.2
30337.9
30337.7
30337.4
30337.3
30337.1
30337
30336.9
30336.8
30336.8
30336.7
30336.6
30336.5
30336.4
30336.2
30335.9
30335.8
30335.8
30335.9
30336
30336.4
30337.3
30338.9
30341.8
30345.9
30351
30360.7
30371.3
30398.8
30374.3
30377.4
30385
30399.5
30406.3
30406.1
30404.4
30399.8
30388.9
30365.6
30317.3
30239.2
30050.9
30022.7
29986.2
29968.6
29959.8
29953
29944.7
29933.9
29921
29906.7
29891.6
29876.1
29860.6
29845
29829.5
29814.1
29798.7
29783.5
29768.4
29753.3
29738.3
29723.4
29708.6
29693.9
29679.2
29664.6
29650.1
29635.6
29621.2
29606.9
29592.6
29578.4
29564.3
29550.2
29536.2
29522.4
29508.6
29494.9
29481.3
29467.8
29454.4
29441.1
29427.9
29414.7
29401.6
29388.6
29375.7
29362.8
29350.1
29337.4
29324.8
29312.3
29299.9
29287.6
29275.4
29263.2
29251.2
29239.3
29227.4
29215.7
29204
29192.5
29181.1
29169.8
29158.7
29147.6
29136.7
29125.9
29115.2
29104.7
29094.3
29084
29073.9
29063.9
29054.1
29044.5
29035
29025.7
29016.6
29007.6
28998.8
28990.2
28981.7
28973.5
28965.4
28957.5
28949.7
28942.1
28934.7
28927.4
28920.3
28913.3
28906.4
28899.6
28893
28886.4
28880
28873.6
28867.4
28861.2
31602
31593.8
31566.2
31522.4
31485.5
31455.8
31428.3
31400.5
31372.1
31343.6
31315.3
31287.3
31259.5
31232.2
31205.2
31178.6
31152.3
31126.4
31100.8
31075.6
31050.8
31026.3
31002.2
30978.3
30954.8
30931.6
30908.6
30885.8
30863.1
30840.6
30818.1
30795.7
30773.3
30750.9
30728.6
30706.2
30683.8
30661.4
30639
30616.7
30594.3
30572
30549.6
30527.1
30504.6
30481.9
30459
30435.8
30412.2
30388.3
30363.9
30338.8
30313.1
30286.6
30259.1
30230.7
30201.1
30170.3
30138.2
30104.7
30069.7
30033
29994.6
29954.5
29912.4
29868.3
29822.1
29773.7
29722.9
29669.5
29613.5
29554.5
29492.4
29426.8
29357.6
29284.5
29207.1
29125.3
29039
28947.8
28851.6
28750.1
28643.1
28530.6
28411.8
28285.9
28152.3
28009.4
27853.6
27678.3
27470.3
27204
26832.1
26274.5
25415
24128.9
22364.4
20240.1
18046.2
16095.1
14553.7
13412.6
12572.6
11932.5
11425.3
11014.9
10684.3
10425.5
10234.1
10106.9
10037.8
10010.9
10002.8
10000.7
10000.2
10000
10000
10000
10000
10000
10000
10000
10000
10000
10000
10000
10000
10000
10000
10000
10000
10000
10000
10000
10000
10000
10000
10000
10000
10000
10000
10000
10000
10000
10000
10000
10000
10000
10000
10000
28840.1
28834.9
28837.1
28843.5
28856.7
28871
28883.5
28894
28903.4
28912.3
28921.1
28929.9
28938.9
28947.8
28956.8
28965.6
28974.4
28983
28991.4
28999.6
29007.6
29015.2
29022.5
29029.5
29036.4
29042.8
29048.9
29054.7
29060.3
29065.7
29070.8
29075.6
29080.2
29084.5
29088.6
29092.4
29095.8
29099.2
29102.1
29104.8
29107.2
29109.3
29111.1
29112.7
29114
29114.9
29115.5
29115.8
29115.7
29115.5
29115
29113.9
29112.6
29110.8
29109.8
29108.1
29104.3
29102.3
29099.7
29096.5
29093.2
29089.5
29085.6
29081.5
29077.2
29072.6
29067.9
29062.9
29057.9
29052.7
29047.4
29042
29036.6
29031.2
29025.8
29020.4
29015
29009.7
29004.4
28999.2
28994
28989
28984
28979.2
28974.6
28970
28965.7
28961.5
28957.4
28953.4
28949.2
28944.9
28940.1
28934.2
28926.8
28917.3
28905.9
28893.2
28879.8
28866.4
28852.7
28837.5
28819.1
28792.8
28749.3
28665.9
28498.4
28163.1
27451.1
25612.6
20727
14823
11622.7
10420.3
10093.9
10020
10004.2
10000.9
10000.2
10000
10000
10000
10000
10000
10000
10000
10000
10000
10000
10000
10000
10000
10000
10000
10000
10000
10000
10000
10000
10000
10000
10000
10000
10000
10000
10000
10000
10000
10000
10000
)
;

boundaryField
{
    inlet
    {
        type            zeroGradient;
    }
    outlet
    {
        type            zeroGradient;
    }
    bottom
    {
        type            symmetryPlane;
    }
    top
    {
        type            symmetryPlane;
    }
    obstacle
    {
        type            zeroGradient;
    }
    defaultFaces
    {
        type            empty;
    }
}


// ************************************************************************* //
