/*--------------------------------*- C++ -*----------------------------------*\
| =========                 |                                                 |
| \\      /  F ield         | OpenFOAM: The Open Source CFD Toolbox           |
|  \\    /   O peration     | Version:  5.x                                   |
|   \\  /    A nd           | Web:      www.OpenFOAM.org                      |
|    \\/     M anipulation  |                                                 |
\*---------------------------------------------------------------------------*/
/*   Windows 32 and 64 bit porting by blueCAPE: http://www.bluecape.com.pt   *\
|  Based on Windows porting (2.0.x v4) by Symscape: http://www.symscape.com   |
\*---------------------------------------------------------------------------*/
FoamFile
{
    version     2.0;
    format      ascii;
    class       volScalarField;
    location    "0.008";
    object      T;
}
// * * * * * * * * * * * * * * * * * * * * * * * * * * * * * * * * * * * * * //

dimensions      [0 0 0 1 0 0 0];

internalField   nonuniform List<scalar> 
1000
(
348.432
348.432
348.432
348.432
348.432
348.432
348.432
348.432
348.432
348.432
348.432
348.432
348.432
348.432
348.432
348.432
348.432
348.432
348.432
348.432
348.432
348.432
348.432
348.432
348.432
348.432
348.432
348.432
348.432
348.432
348.432
348.432
348.432
348.432
348.432
348.432
348.432
348.432
348.432
348.432
348.432
348.432
348.432
348.432
348.432
348.432
348.432
348.432
348.432
348.432
348.432
348.432
348.432
348.432
348.432
348.432
348.431
348.431
348.43
348.429
348.426
348.423
348.417
348.407
348.393
348.371
348.339
348.292
348.227
348.137
348.016
347.857
347.653
347.4
347.091
346.724
346.3
345.819
345.285
344.704
344.082
343.424
342.735
342.021
341.285
340.53
339.76
338.976
338.181
337.376
336.562
335.741
334.914
334.08
333.241
332.397
331.55
330.698
329.843
328.984
328.123
327.259
326.393
325.525
324.654
323.782
322.909
322.034
321.158
320.281
319.403
318.524
317.644
316.765
315.884
315.004
314.123
313.243
312.362
311.482
310.602
309.722
308.843
307.964
307.086
306.209
305.332
304.456
303.581
302.707
301.834
300.962
300.091
299.221
298.352
297.485
296.619
295.753
294.891
294.026
293.171
292.299
291.469
290.559
289.799
288.795
288.161
287.039
286.483
285.39
284.681
283.853
282.881
282.197
281.296
280.403
279.687
278.804
277.924
277.191
276.352
275.468
274.706
273.922
273.058
272.245
271.495
270.689
269.848
269.073
268.323
267.527
266.717
265.955
265.221
264.453
263.671
262.922
262.207
261.484
260.738
260.009
259.316
258.642
257.957
257.268
256.604
255.976
255.367
254.756
254.152
253.577
253.042
252.535
252.041
251.562
251.111
250.704
250.34
250.007
249.688
249.393
249.145
248.945
248.773
248.621
248.492
248.385
248.3
248.25
248.224
248.195
248.16
248.14
248.139
248.143
248.15
248.153
248.153
248.154
248.155
248.16
248.17
248.178
248.182
248.184
248.185
248.187
248.194
248.205
248.214
248.22
248.223
248.228
248.237
248.25
248.263
248.273
248.28
248.287
248.299
248.315
248.332
248.346
248.355
248.364
248.378
248.398
248.421
248.439
248.451
248.462
248.481
248.507
248.535
248.559
248.577
248.595
248.619
248.651
248.686
248.72
248.75
248.779
248.813
248.855
248.905
248.96
249.014
249.062
249.106
249.152
249.208
249.284
249.386
249.512
249.657
249.809
249.956
250.085
250.191
250.286
250.37
250.437
250.53
250.728
251.316
253.503
259.81
270.253
282.924
297.207
312.137
327.094
340.986
354.061
364.346
374.524
379.87
388.065
348.432
348.432
348.432
348.432
348.432
348.432
348.432
348.432
348.432
348.432
348.432
348.432
348.432
348.432
348.432
348.432
348.432
348.432
348.432
348.432
348.432
348.432
348.432
348.432
348.432
348.432
348.432
348.432
348.432
348.432
348.432
348.432
348.432
348.432
348.432
348.432
348.432
348.432
348.432
348.432
348.432
348.432
348.432
348.432
348.432
348.432
348.432
348.432
348.432
348.432
348.432
348.432
348.432
348.432
348.432
348.432
348.431
348.431
348.43
348.429
348.426
348.423
348.417
348.407
348.393
348.371
348.339
348.292
348.227
348.137
348.016
347.857
347.653
347.4
347.091
346.724
346.3
345.819
345.285
344.704
344.082
343.424
342.735
342.021
341.285
340.53
339.76
338.976
338.181
337.376
336.562
335.741
334.914
334.08
333.241
332.397
331.55
330.698
329.843
328.984
328.123
327.259
326.393
325.525
324.654
323.782
322.909
322.034
321.158
320.281
319.403
318.524
317.644
316.765
315.884
315.004
314.123
313.243
312.362
311.482
310.602
309.722
308.843
307.964
307.086
306.209
305.332
304.456
303.581
302.707
301.834
300.962
300.091
299.221
298.352
297.485
296.619
295.753
294.891
294.026
293.171
292.299
291.469
290.559
289.799
288.795
288.161
287.039
286.483
285.39
284.681
283.853
282.881
282.197
281.296
280.403
279.687
278.804
277.924
277.191
276.352
275.468
274.706
273.922
273.058
272.245
271.495
270.689
269.848
269.073
268.323
267.527
266.717
265.955
265.221
264.453
263.671
262.922
262.207
261.484
260.738
260.009
259.316
258.642
257.957
257.268
256.604
255.976
255.367
254.756
254.152
253.577
253.042
252.535
252.041
251.562
251.111
250.704
250.34
250.007
249.688
249.393
249.145
248.945
248.773
248.621
248.492
248.385
248.3
248.25
248.224
248.195
248.16
248.14
248.139
248.143
248.15
248.153
248.153
248.154
248.155
248.16
248.17
248.178
248.182
248.184
248.185
248.187
248.194
248.205
248.214
248.22
248.223
248.228
248.237
248.25
248.263
248.273
248.28
248.287
248.299
248.315
248.332
248.346
248.355
248.364
248.378
248.398
248.421
248.439
248.451
248.462
248.481
248.507
248.535
248.559
248.577
248.595
248.619
248.651
248.686
248.72
248.75
248.779
248.813
248.854
248.905
248.96
249.014
249.062
249.106
249.151
249.206
249.281
249.381
249.505
249.646
249.791
249.926
250.039
250.123
250.18
250.221
250.26
250.328
250.499
251.051
253.053
259.049
269.513
282.074
296.172
311.054
325.711
339.963
352.225
363.787
371.925
380.163
383.515
386.17
386.886
387.059
387.412
387.753
388.079
388.379
388.661
388.92
389.164
389.389
389.602
389.798
389.984
390.155
390.318
390.468
390.611
390.744
390.873
390.994
391.112
391.223
391.333
391.436
391.537
391.632
391.724
391.81
391.893
391.968
392.041
392.106
392.168
392.223
392.273
392.318
392.359
392.395
392.427
392.454
392.478
392.496
392.514
392.525
392.536
392.542
392.546
392.55
392.549
392.549
392.543
392.539
392.53
392.52
392.51
392.494
392.483
392.462
392.448
392.424
392.408
392.382
392.365
392.336
392.318
392.285
392.267
392.232
392.213
392.177
392.157
392.119
392.099
392.061
392.04
392.002
391.981
391.942
391.921
391.883
391.862
391.823
391.803
391.765
391.745
391.707
391.687
391.649
391.63
391.593
391.574
391.537
391.518
391.482
391.463
391.428
391.409
391.373
391.357
467.135
466.952
466.71
466.401
466.091
465.799
465.55
465.308
465.013
464.65
464.268
463.946
463.67
463.343
462.872
462.285
461.698
461.235
460.914
460.647
460.282
459.687
458.784
457.561
456.067
454.373
452.555
450.676
448.789
446.922
445.092
443.306
441.567
439.87
438.214
436.603
435.031
433.505
432.025
430.597
429.214
427.886
426.605
425.373
424.186
423.052
421.962
420.924
419.935
418.998
418.104
417.258
416.449
415.677
414.934
414.221
413.525
412.849
412.188
411.541
410.904
410.285
409.676
409.082
408.499
407.932
407.369
406.82
406.277
405.74
405.204
404.676
404.144
403.612
403.078
402.54
401.991
401.44
400.877
400.301
399.713
399.114
398.494
397.863
397.211
396.532
395.824
395.087
394.295
393.418
392.397
391.11
389.325
386.661
382.545
376.297
367.47
356.29
343.851
331.701
321.071
312.343
305.242
299.327
294.295
289.994
286.383
283.472
281.287
279.842
279.091
278.837
278.769
278.752
278.747
278.746
278.746
278.746
278.746
278.746
278.746
278.746
278.746
278.746
278.746
278.746
278.746
278.746
278.746
278.746
278.746
278.746
278.746
278.746
278.746
278.746
278.746
278.746
278.746
278.746
278.746
278.746
278.746
278.746
278.746
278.746
278.746
278.746
278.746
278.746
391.245
391.244
391.248
391.261
391.293
391.334
391.371
391.404
391.435
391.468
391.501
391.535
391.569
391.601
391.631
391.658
391.682
391.703
391.719
391.731
391.738
391.742
391.743
391.74
391.732
391.717
391.702
391.686
391.665
391.635
391.594
391.547
391.503
391.471
391.451
391.429
391.381
391.279
391.116
390.922
390.73
390.564
390.422
390.275
390.084
389.816
389.452
389.004
388.511
388.035
387.626
387.319
387.133
387.059
387.064
387.155
387.42
387.78
388.116
388.409
388.636
388.804
388.912
388.981
389.018
389.043
389.062
389.084
389.111
389.142
389.172
389.202
389.231
389.257
389.28
389.3
389.32
389.337
389.354
389.371
389.384
389.387
389.386
389.381
389.372
389.356
389.339
389.32
389.298
389.274
389.25
389.223
389.194
389.164
389.13
389.09
389.05
389.016
388.99
388.979
388.98
388.984
388.981
388.95
388.825
388.501
387.766
386.183
383.027
375.5
352.196
314.424
291.309
281.998
279.475
278.902
278.779
278.753
278.747
278.746
278.746
278.746
278.746
278.746
278.746
278.746
278.746
278.746
278.746
278.746
278.746
278.746
278.746
278.746
278.746
278.746
278.746
278.746
278.746
278.746
278.746
278.746
278.746
278.746
278.746
278.746
278.746
278.746
278.746
278.746
)
;

boundaryField
{
    inlet
    {
        type            zeroGradient;
    }
    outlet
    {
        type            zeroGradient;
    }
    bottom
    {
        type            symmetryPlane;
    }
    top
    {
        type            symmetryPlane;
    }
    obstacle
    {
        type            zeroGradient;
    }
    defaultFaces
    {
        type            empty;
    }
}


// ************************************************************************* //
