/*--------------------------------*- C++ -*----------------------------------*\
| =========                 |                                                 |
| \\      /  F ield         | OpenFOAM: The Open Source CFD Toolbox           |
|  \\    /   O peration     | Version:  5.x                                   |
|   \\  /    A nd           | Web:      www.OpenFOAM.org                      |
|    \\/     M anipulation  |                                                 |
\*---------------------------------------------------------------------------*/
/*   Windows 32 and 64 bit porting by blueCAPE: http://www.bluecape.com.pt   *\
|  Based on Windows porting (2.0.x v4) by Symscape: http://www.symscape.com   |
\*---------------------------------------------------------------------------*/
FoamFile
{
    version     2.0;
    format      ascii;
    class       volVectorField;
    location    "0.008";
    object      U;
}
// * * * * * * * * * * * * * * * * * * * * * * * * * * * * * * * * * * * * * //

dimensions      [0 1 -1 0 0 0 0];

internalField   nonuniform List<vector> 
1000
(
(-4.49289e-013 3.04145e-012 0)
(-1.22533e-013 3.03416e-012 0)
(-1.63378e-013 2.94736e-012 0)
(-2.27562e-013 2.94153e-012 0)
(-5.95162e-013 2.95247e-012 0)
(-5.60152e-013 2.92184e-012 0)
(-7.5854e-014 2.91819e-012 0)
(-5.30978e-013 2.83796e-012 0)
(-2.15892e-013 2.84161e-012 0)
(-5.36813e-013 2.84525e-012 0)
(2.91746e-014 2.74752e-012 0)
(-2.80076e-013 2.72855e-012 0)
(-4.66794e-013 2.75992e-012 0)
(1.75048e-014 2.65708e-012 0)
(-2.45067e-013 2.65197e-012 0)
(8.16889e-014 2.60602e-012 0)
(4.02609e-013 2.62207e-012 0)
(2.74241e-013 2.54111e-012 0)
(7.0019e-014 2.55788e-012 0)
(5.95162e-013 2.50537e-012 0)
(2.56736e-013 2.54038e-012 0)
(-7.0019e-013 2.43389e-012 0)
(-3.15086e-013 2.51558e-012 0)
(-4.66794e-014 2.4638e-012 0)
(4.90133e-013 2.52725e-012 0)
(1.06779e-012 2.45358e-012 0)
(1.45873e-012 2.54475e-012 0)
(2.38065e-012 2.50829e-012 0)
(3.50679e-012 2.54257e-012 0)
(6.96106e-012 2.51485e-012 0)
(1.38404e-011 2.57612e-012 0)
(2.99857e-011 2.52871e-012 0)
(6.61271e-011 2.55278e-012 0)
(1.4879e-010 2.54767e-012 0)
(3.35461e-010 2.59362e-012 0)
(7.53317e-010 2.55569e-012 0)
(1.67886e-009 2.54548e-012 0)
(3.71033e-009 2.55788e-012 0)
(8.12514e-009 2.52141e-012 0)
(1.76249e-008 2.50391e-012 0)
(3.78617e-008 2.49808e-012 0)
(8.05322e-008 2.49662e-012 0)
(1.69569e-007 2.47109e-012 0)
(3.53399e-007 2.47328e-012 0)
(7.2885e-007 2.43535e-012 0)
(1.48725e-006 2.41639e-012 0)
(3.00204e-006 2.38721e-012 0)
(5.99298e-006 2.39742e-012 0)
(1.18296e-005 2.41639e-012 0)
(2.30833e-005 2.36168e-012 0)
(4.45163e-005 2.35877e-012 0)
(8.48254e-005 2.27562e-012 0)
(0.000159661 2.23623e-012 0)
(0.000296769 2.2231e-012 0)
(0.000544566 2.21508e-012 0)
(0.000986183 2.14579e-012 0)
(0.00176195 2.1808e-012 0)
(0.00310456 2.08817e-012 0)
(0.00539276 2.06921e-012 0)
(0.00923101 2.0218e-012 0)
(0.0155641 1.98387e-012 0)
(0.0258367 1.97657e-012 0)
(0.0422057 1.8752e-012 0)
(0.0678114 1.86131e-012 0)
(0.107102 1.79057e-012 0)
(0.166191 1.76355e-012 0)
(0.253217 1.75839e-012 0)
(0.378625 1.66367e-012 0)
(0.555299 1.65466e-012 0)
(0.79843 1.54847e-012 0)
(1.12504 1.5312e-012 0)
(1.5531 1.47308e-012 0)
(2.10025 1.43542e-012 0)
(2.78227 1.39964e-012 0)
(3.61149 1.37936e-012 0)
(4.59538 1.30381e-012 0)
(5.7356 1.34099e-012 0)
(7.02761 1.25589e-012 0)
(8.46133 1.31974e-012 0)
(10.0231 1.20949e-012 0)
(11.6979 1.15901e-012 0)
(13.4709 1.19408e-012 0)
(15.3285 1.15926e-012 0)
(17.2583 1.1666e-012 0)
(19.2499 1.16875e-012 0)
(21.2944 1.12019e-012 0)
(23.3844 1.13062e-012 0)
(25.5138 1.06561e-012 0)
(27.6775 1.10144e-012 0)
(29.8713 1.07641e-012 0)
(32.0917 1.06153e-012 0)
(34.336 1.10405e-012 0)
(36.6017 1.07428e-012 0)
(38.8869 1.05009e-012 0)
(41.1898 1.04932e-012 0)
(43.5089 1.03279e-012 0)
(45.843 1.08399e-012 0)
(48.1911 1.08839e-012 0)
(50.552 1.07433e-012 0)
(52.925 1.08716e-012 0)
(55.3092 1.06942e-012 0)
(57.704 1.09087e-012 0)
(60.1086 1.09891e-012 0)
(62.5224 1.10652e-012 0)
(64.9449 1.11367e-012 0)
(67.3755 1.11156e-012 0)
(69.8137 1.13341e-012 0)
(72.259 1.13373e-012 0)
(74.711 1.11695e-012 0)
(77.1692 1.12149e-012 0)
(79.6331 1.10917e-012 0)
(82.1025 1.11909e-012 0)
(84.5769 1.1288e-012 0)
(87.0559 1.13079e-012 0)
(89.5393 1.13786e-012 0)
(92.0267 1.1339e-012 0)
(94.5177 1.13182e-012 0)
(97.0122 1.13701e-012 0)
(99.5098 1.13729e-012 0)
(102.01 1.14006e-012 0)
(104.513 1.14681e-012 0)
(107.019 1.14369e-012 0)
(109.527 1.12679e-012 0)
(112.036 1.10803e-012 0)
(114.547 1.09807e-012 0)
(117.06 1.09061e-012 0)
(119.575 1.09748e-012 0)
(122.09 1.09603e-012 0)
(124.607 1.08664e-012 0)
(127.124 1.08816e-012 0)
(129.642 1.08792e-012 0)
(132.161 1.08824e-012 0)
(134.68 1.08937e-012 0)
(137.2 1.09057e-012 0)
(139.719 1.09346e-012 0)
(142.239 1.09713e-012 0)
(144.759 1.1019e-012 0)
(147.278 1.10321e-012 0)
(149.797 1.10484e-012 0)
(152.316 1.10923e-012 0)
(154.834 1.12391e-012 0)
(157.351 1.14186e-012 0)
(159.867 1.15308e-012 0)
(162.382 1.15876e-012 0)
(164.897 1.16727e-012 0)
(167.409 1.18653e-012 0)
(169.922 1.20537e-012 0)
(172.431 1.21615e-012 0)
(174.94 1.22656e-012 0)
(177.445 1.24109e-012 0)
(179.95 1.26111e-012 0)
(182.453 1.27756e-012 0)
(184.952 1.29609e-012 0)
(187.45 1.30986e-012 0)
(189.945 1.32554e-012 0)
(192.436 1.34422e-012 0)
(194.925 1.36593e-012 0)
(197.41 1.38361e-012 0)
(199.891 1.39876e-012 0)
(202.369 1.41759e-012 0)
(204.842 1.4352e-012 0)
(207.31 1.44678e-012 0)
(209.774 1.45997e-012 0)
(212.232 1.47544e-012 0)
(214.684 1.49208e-012 0)
(217.13 1.50009e-012 0)
(219.569 1.50412e-012 0)
(222.001 1.51189e-012 0)
(224.425 1.51077e-012 0)
(226.84 1.51219e-012 0)
(229.246 1.51628e-012 0)
(231.642 1.51455e-012 0)
(234.026 1.5163e-012 0)
(236.399 1.51771e-012 0)
(238.759 1.52035e-012 0)
(241.104 1.51966e-012 0)
(243.434 1.51489e-012 0)
(245.746 1.51135e-012 0)
(248.04 1.51296e-012 0)
(250.314 1.51366e-012 0)
(252.564 1.51398e-012 0)
(254.791 1.51254e-012 0)
(256.99 1.50935e-012 0)
(259.16 1.51415e-012 0)
(261.297 1.52174e-012 0)
(263.399 1.52481e-012 0)
(265.461 1.53035e-012 0)
(267.481 1.53948e-012 0)
(269.453 1.5355e-012 0)
(271.374 1.52286e-012 0)
(273.239 1.51607e-012 0)
(275.043 1.5075e-012 0)
(276.781 1.49635e-012 0)
(278.447 1.47558e-012 0)
(280.036 1.45783e-012 0)
(281.543 1.43387e-012 0)
(282.962 1.40058e-012 0)
(284.288 1.36507e-012 0)
(285.518 1.33032e-012 0)
(286.647 1.29209e-012 0)
(287.673 1.24648e-012 0)
(288.595 1.19618e-012 0)
(289.413 1.14717e-012 0)
(290.127 1.09995e-012 0)
(290.743 1.0489e-012 0)
(291.264 9.97401e-013 0)
(291.696 9.47127e-013 0)
(292.049 8.93794e-013 0)
(292.33 8.4409e-013 0)
(292.548 7.94058e-013 0)
(292.714 7.4441e-013 0)
(292.837 6.93965e-013 0)
(292.924 6.47611e-013 0)
(292.985 6.03634e-013 0)
(293.027 5.606e-013 0)
(293.055 5.20705e-013 0)
(293.071 4.82856e-013 0)
(293.082 4.46525e-013 0)
(293.09 4.10858e-013 0)
(293.096 3.73304e-013 0)
(293.102 3.27969e-013 0)
(293.108 2.77534e-013 0)
(293.114 2.2763e-013 0)
(293.121 1.75116e-013 0)
(293.13 1.24031e-013 0)
(293.138 7.46209e-014 0)
(293.148 2.4218e-014 0)
(293.157 -2.91491e-014 0)
(293.165 -8.72592e-014 0)
(293.172 -1.41214e-013 0)
(293.179 -2.08294e-013 0)
(293.185 -2.48669e-013 0)
(293.19 -2.69481e-013 0)
(293.195 -2.59136e-013 0)
(293.198 -4.55691e-013 0)
(293.201 -4.66359e-013 0)
(293.204 -4.83762e-013 0)
(293.206 -4.92422e-013 0)
(293.208 -5.3228e-013 0)
(293.209 -5.38928e-013 0)
(293.21 -5.86095e-013 0)
(293.211 -6.3825e-013 0)
(293.212 -5.90589e-013 0)
(293.212 -9.01851e-013 0)
(293.213 -4.17589e-013 0)
(293.213 -1.50195e-012 0)
(293.213 -6.43041e-013 0)
(293.214 -2.31302e-012 0)
(293.215 -2.17436e-012 0)
(293.215 3.48647e-012 0)
(293.216 3.61534e-011 0)
(293.217 2.01874e-010 0)
(293.218 7.79943e-010 0)
(293.22 2.59468e-009 0)
(293.221 7.52926e-009 0)
(293.222 1.93648e-008 0)
(293.224 4.4809e-008 0)
(293.225 9.38754e-008 0)
(293.227 1.79224e-007 0)
(293.228 3.13431e-007 0)
(293.229 5.03784e-007 0)
(293.23 7.46653e-007 0)
(293.231 1.02457e-006 0)
(293.232 1.31197e-006 0)
(293.232 1.60509e-006 0)
(293.232 1.97061e-006 0)
(293.232 3.04584e-006 0)
(293.231 5.69595e-006 0)
(293.231 1.21423e-005 0)
(293.23 2.32868e-005 0)
(293.229 4.17655e-005 0)
(293.228 7.3435e-005 0)
(293.226 0.00012704 0)
(293.224 0.000214065 0)
(293.219 0.000351138 0)
(293.212 0.000561343 0)
(293.2 0.000880774 0)
(293.179 0.00138941 0)
(293.145 0.00220852 0)
(293.092 0.00352607 0)
(293.014 0.00557012 0)
(292.906 0.00864405 0)
(292.767 0.0130317 0)
(292.595 0.018996 0)
(292.403 0.0268687 0)
(292.202 0.0365332 0)
(292.142 0.0487559 0)
(292.268 0.061081 0)
(292.143 0.0746274 0)
(291.647 0.0918262 0)
(291.175 0.114277 0)
(290.933 0.14009 0)
(290.85 0.167632 0)
(290.814 0.196534 0)
(290.798 0.226312 0)
(290.794 0.256706 0)
(290.794 0.287731 0)
(290.802 0.320283 0)
(290.802 0.35627 0)
(290.78 0.39839 0)
(-1.46707e-012 3.02509e-012 0)
(-1.50041e-012 3.00561e-012 0)
(-2.05389e-012 2.97227e-012 0)
(-1.72714e-012 2.9556e-012 0)
(-2.44733e-012 2.94142e-012 0)
(-2.10057e-012 2.90704e-012 0)
(-2.5607e-012 2.90246e-012 0)
(-3.07417e-012 2.85557e-012 0)
(-2.8141e-012 2.8339e-012 0)
(-3.29423e-012 2.78722e-012 0)
(-2.87411e-012 2.76732e-012 0)
(-2.56736e-012 2.72032e-012 0)
(-2.84744e-012 2.70532e-012 0)
(-2.434e-012 2.66031e-012 0)
(-2.60738e-012 2.64249e-012 0)
(-2.36731e-012 2.59821e-012 0)
(-2.23394e-012 2.58549e-012 0)
(-1.81383e-012 2.52975e-012 0)
(-1.89385e-012 2.53652e-012 0)
(-9.46924e-013 2.46755e-012 0)
(-1.24701e-012 2.50099e-012 0)
(-5.20141e-013 2.44014e-012 0)
(2.66739e-013 2.49349e-012 0)
(9.00245e-013 2.46286e-012 0)
(1.50708e-012 2.51954e-012 0)
(1.41372e-012 2.4814e-012 0)
(2.35397e-012 2.53267e-012 0)
(2.67406e-012 2.50245e-012 0)
(4.80797e-012 2.54382e-012 0)
(7.62207e-012 2.52975e-012 0)
(1.40572e-011 2.56445e-012 0)
(2.96547e-011 2.53538e-012 0)
(6.6358e-011 2.55194e-012 0)
(1.48794e-010 2.54496e-012 0)
(3.35531e-010 2.55351e-012 0)
(7.51918e-010 2.55059e-012 0)
(1.67798e-009 2.51443e-012 0)
(3.70922e-009 2.51839e-012 0)
(8.12425e-009 2.5011e-012 0)
(1.76247e-008 2.49287e-012 0)
(3.78608e-008 2.49109e-012 0)
(8.05315e-008 2.47015e-012 0)
(1.69569e-007 2.47432e-012 0)
(3.53398e-007 2.4541e-012 0)
(7.28849e-007 2.454e-012 0)
(1.48725e-006 2.43212e-012 0)
(3.00203e-006 2.42712e-012 0)
(5.99298e-006 2.40107e-012 0)
(1.18296e-005 2.40868e-012 0)
(2.30833e-005 2.36064e-012 0)
(4.45163e-005 2.36866e-012 0)
(8.48254e-005 2.28708e-012 0)
(0.000159661 2.27697e-012 0)
(0.000296769 2.20445e-012 0)
(0.000544566 2.2156e-012 0)
(0.000986183 2.15048e-012 0)
(0.00176195 2.16569e-012 0)
(0.00310456 2.08578e-012 0)
(0.00539276 2.06337e-012 0)
(0.00923101 2.01836e-012 0)
(0.0155641 1.97533e-012 0)
(0.0258367 1.95323e-012 0)
(0.0422057 1.88978e-012 0)
(0.0678114 1.86496e-012 0)
(0.107102 1.80182e-012 0)
(0.166191 1.75471e-012 0)
(0.253217 1.73059e-012 0)
(0.378625 1.66029e-012 0)
(0.555299 1.63117e-012 0)
(0.79843 1.5521e-012 0)
(1.12504 1.54067e-012 0)
(1.5531 1.46416e-012 0)
(2.10025 1.42627e-012 0)
(2.78227 1.39856e-012 0)
(3.61149 1.36127e-012 0)
(4.59538 1.32007e-012 0)
(5.7356 1.31958e-012 0)
(7.02761 1.27882e-012 0)
(8.46133 1.27742e-012 0)
(10.0231 1.22944e-012 0)
(11.6979 1.21463e-012 0)
(13.4709 1.21526e-012 0)
(15.3285 1.16068e-012 0)
(17.2583 1.1691e-012 0)
(19.2499 1.1539e-012 0)
(21.2944 1.12613e-012 0)
(23.3844 1.15017e-012 0)
(25.5138 1.06858e-012 0)
(27.6775 1.09427e-012 0)
(29.8713 1.09385e-012 0)
(32.0917 1.06512e-012 0)
(34.336 1.09917e-012 0)
(36.6017 1.0663e-012 0)
(38.8869 1.04812e-012 0)
(41.1898 1.05503e-012 0)
(43.5089 1.03359e-012 0)
(45.843 1.07385e-012 0)
(48.1911 1.08761e-012 0)
(50.552 1.07615e-012 0)
(52.925 1.08824e-012 0)
(55.3092 1.06363e-012 0)
(57.704 1.07745e-012 0)
(60.1086 1.0896e-012 0)
(62.5224 1.09913e-012 0)
(64.9449 1.10927e-012 0)
(67.3755 1.11011e-012 0)
(69.8137 1.13537e-012 0)
(72.259 1.13499e-012 0)
(74.711 1.12146e-012 0)
(77.1692 1.12725e-012 0)
(79.6331 1.11685e-012 0)
(82.1025 1.1268e-012 0)
(84.5769 1.13654e-012 0)
(87.0559 1.13624e-012 0)
(89.5393 1.13986e-012 0)
(92.0267 1.13607e-012 0)
(94.5177 1.13114e-012 0)
(97.0122 1.13247e-012 0)
(99.5098 1.13026e-012 0)
(102.01 1.13347e-012 0)
(104.513 1.1426e-012 0)
(107.019 1.1417e-012 0)
(109.527 1.12484e-012 0)
(112.036 1.10884e-012 0)
(114.547 1.10022e-012 0)
(117.06 1.09363e-012 0)
(119.575 1.09874e-012 0)
(122.09 1.09847e-012 0)
(124.607 1.09134e-012 0)
(127.124 1.09197e-012 0)
(129.642 1.09148e-012 0)
(132.161 1.09183e-012 0)
(134.68 1.09098e-012 0)
(137.2 1.09122e-012 0)
(139.719 1.09349e-012 0)
(142.239 1.0962e-012 0)
(144.759 1.09965e-012 0)
(147.278 1.09967e-012 0)
(149.797 1.10117e-012 0)
(152.316 1.10686e-012 0)
(154.834 1.12268e-012 0)
(157.351 1.14021e-012 0)
(159.867 1.15233e-012 0)
(162.382 1.15953e-012 0)
(164.897 1.16668e-012 0)
(167.409 1.18286e-012 0)
(169.922 1.20229e-012 0)
(172.431 1.21398e-012 0)
(174.94 1.22419e-012 0)
(177.445 1.23958e-012 0)
(179.95 1.2584e-012 0)
(182.453 1.27647e-012 0)
(184.952 1.29483e-012 0)
(187.45 1.30916e-012 0)
(189.945 1.32476e-012 0)
(192.436 1.34422e-012 0)
(194.925 1.36504e-012 0)
(197.41 1.38057e-012 0)
(199.891 1.39249e-012 0)
(202.369 1.41012e-012 0)
(204.842 1.4261e-012 0)
(207.31 1.43657e-012 0)
(209.774 1.44891e-012 0)
(212.232 1.46576e-012 0)
(214.684 1.48035e-012 0)
(217.13 1.48693e-012 0)
(219.569 1.49215e-012 0)
(222.001 1.499e-012 0)
(224.425 1.49948e-012 0)
(226.84 1.50021e-012 0)
(229.246 1.5046e-012 0)
(231.642 1.50415e-012 0)
(234.026 1.50679e-012 0)
(236.399 1.50849e-012 0)
(238.759 1.51156e-012 0)
(241.104 1.51012e-012 0)
(243.434 1.50629e-012 0)
(245.746 1.50192e-012 0)
(248.04 1.50313e-012 0)
(250.314 1.50262e-012 0)
(252.564 1.50209e-012 0)
(254.791 1.49963e-012 0)
(256.99 1.49687e-012 0)
(259.16 1.50011e-012 0)
(261.297 1.50631e-012 0)
(263.399 1.50939e-012 0)
(265.461 1.51543e-012 0)
(267.481 1.52541e-012 0)
(269.453 1.52253e-012 0)
(271.374 1.51111e-012 0)
(273.239 1.50427e-012 0)
(275.043 1.49724e-012 0)
(276.781 1.4869e-012 0)
(278.447 1.46726e-012 0)
(280.036 1.44939e-012 0)
(281.543 1.42616e-012 0)
(282.962 1.39389e-012 0)
(284.288 1.35984e-012 0)
(285.518 1.32605e-012 0)
(286.647 1.28759e-012 0)
(287.673 1.24251e-012 0)
(288.595 1.19345e-012 0)
(289.413 1.14435e-012 0)
(290.127 1.09675e-012 0)
(290.743 1.04614e-012 0)
(291.264 9.95272e-013 0)
(291.696 9.43745e-013 0)
(292.049 8.91028e-013 0)
(292.33 8.41383e-013 0)
(292.548 7.91171e-013 0)
(292.714 7.41577e-013 0)
(292.837 6.91609e-013 0)
(292.924 6.46451e-013 0)
(292.985 6.02028e-013 0)
(293.027 5.58721e-013 0)
(293.055 5.19484e-013 0)
(293.071 4.81273e-013 0)
(293.082 4.4521e-013 0)
(293.09 4.09399e-013 0)
(293.096 3.71962e-013 0)
(293.102 3.27787e-013 0)
(293.108 2.77579e-013 0)
(293.114 2.28314e-013 0)
(293.121 1.76937e-013 0)
(293.13 1.26686e-013 0)
(293.138 7.75821e-014 0)
(293.148 2.78095e-014 0)
(293.157 -2.57835e-014 0)
(293.165 -8.38536e-014 0)
(293.172 -1.38266e-013 0)
(293.179 -2.05729e-013 0)
(293.185 -2.46221e-013 0)
(293.19 -2.68039e-013 0)
(293.195 -2.57398e-013 0)
(293.198 -4.53899e-013 0)
(293.201 -4.65433e-013 0)
(293.204 -4.82402e-013 0)
(293.206 -4.91077e-013 0)
(293.208 -5.31548e-013 0)
(293.209 -5.37397e-013 0)
(293.21 -5.86002e-013 0)
(293.211 -6.37285e-013 0)
(293.212 -5.89079e-013 0)
(293.212 -9.00483e-013 0)
(293.213 -4.17629e-013 0)
(293.213 -1.50284e-012 0)
(293.213 -6.42979e-013 0)
(293.214 -2.31214e-012 0)
(293.215 -2.17348e-012 0)
(293.215 3.48697e-012 0)
(293.216 3.6154e-011 0)
(293.217 2.01874e-010 0)
(293.218 7.79943e-010 0)
(293.22 2.59468e-009 0)
(293.221 7.52926e-009 0)
(293.222 1.93648e-008 0)
(293.224 4.4809e-008 0)
(293.225 9.38754e-008 0)
(293.227 1.79224e-007 0)
(293.228 3.13431e-007 0)
(293.229 5.03784e-007 0)
(293.23 7.46653e-007 0)
(293.231 1.02457e-006 0)
(293.232 1.31197e-006 0)
(293.232 1.60509e-006 0)
(293.232 1.97061e-006 0)
(293.232 3.04584e-006 0)
(293.232 5.69595e-006 0)
(293.231 1.21423e-005 0)
(293.231 2.32868e-005 0)
(293.231 4.17655e-005 0)
(293.231 7.3435e-005 0)
(293.232 0.00012704 0)
(293.233 0.000214066 0)
(293.233 0.000351139 0)
(293.233 0.000561345 0)
(293.233 0.000880779 0)
(293.232 0.00138942 0)
(293.23 0.00220855 0)
(293.226 0.00352613 0)
(293.218 0.00557026 0)
(293.204 0.00864423 0)
(293.18 0.013032 0)
(293.146 0.0189965 0)
(293.097 0.0268707 0)
(293.056 0.0365372 0)
(293.071 0.0487667 0)
(293.193 0.0610888 0)
(293.18 0.0746004 0)
(292.941 0.0917511 0)
(292.71 0.114145 0)
(292.571 0.139898 0)
(292.528 0.167379 0)
(292.528 0.196223 0)
(292.55 0.225963 0)
(292.608 0.256324 0)
(292.731 0.287356 0)
(292.994 0.319892 0)
(293.442 0.355947 0)
(295.38 0.397993 0)
(295.63 0.396844 0)
(296.079 0.395477 0)
(296.534 0.394122 0)
(296.716 0.39278 0)
(296.817 0.391448 0)
(296.889 0.390127 0)
(296.974 0.388817 0)
(297.08 0.387517 0)
(297.205 0.386229 0)
(297.341 0.384951 0)
(297.485 0.383683 0)
(297.631 0.382427 0)
(297.779 0.381182 0)
(297.927 0.379947 0)
(298.074 0.378723 0)
(298.221 0.37751 0)
(298.367 0.376307 0)
(298.512 0.375115 0)
(298.656 0.373932 0)
(298.8 0.372759 0)
(298.943 0.371596 0)
(299.086 0.370441 0)
(299.227 0.369296 0)
(299.368 0.368158 0)
(299.508 0.367029 0)
(299.648 0.365908 0)
(299.787 0.364795 0)
(299.925 0.36369 0)
(300.062 0.362593 0)
(300.199 0.361504 0)
(300.335 0.360423 0)
(300.471 0.35935 0)
(300.606 0.358286 0)
(300.74 0.357231 0)
(300.873 0.356185 0)
(301.005 0.355148 0)
(301.136 0.354122 0)
(301.267 0.353105 0)
(301.397 0.352099 0)
(301.526 0.351103 0)
(301.654 0.350118 0)
(301.781 0.349143 0)
(301.908 0.34818 0)
(302.034 0.347228 0)
(302.159 0.346288 0)
(302.284 0.345359 0)
(302.408 0.344442 0)
(302.531 0.343536 0)
(302.654 0.342642 0)
(302.776 0.341759 0)
(302.897 0.340889 0)
(303.018 0.34003 0)
(303.137 0.339182 0)
(303.256 0.338346 0)
(303.375 0.337522 0)
(303.492 0.336709 0)
(303.608 0.335907 0)
(303.725 0.335117 0)
(303.839 0.334337 0)
(303.953 0.333569 0)
(304.066 0.332812 0)
(304.178 0.332065 0)
(304.29 0.331328 0)
(304.4 0.330603 0)
(304.509 0.329887 0)
(304.617 0.329181 0)
(304.724 0.328485 0)
(304.83 0.327799 0)
(304.934 0.327121 0)
(305.038 0.326453 0)
(305.14 0.325794 0)
(305.24 0.325143 0)
(305.34 0.3245 0)
(305.438 0.323865 0)
(305.535 0.323237 0)
(305.63 0.322616 0)
(305.723 0.322002 0)
(305.815 0.321395 0)
(305.905 0.320793 0)
(305.994 0.320198 0)
(306.081 0.319607 0)
(306.166 0.319021 0)
(306.25 0.318439 0)
(306.331 0.317862 0)
(306.411 0.317288 0)
(306.49 0.316717 0)
(306.566 0.316148 0)
(306.641 0.315582 0)
(306.715 0.315018 0)
(306.787 0.314456 0)
(306.857 0.313894 0)
(306.927 0.313333 0)
(306.995 0.312773 0)
(307.062 0.312213 0)
(307.127 0.311652 0)
(307.192 0.31109 0)
(307.256 0.310527 0)
(307.319 0.309963 0)
(307.381 0.309398 0)
(307.441 0.30883 0)
(178.806 -39.8894 0)
(179.169 -39.8776 0)
(179.958 -39.8691 0)
(180.863 -39.8687 0)
(181.606 -39.878 0)
(182.245 -39.8979 0)
(182.866 -39.9287 0)
(183.505 -39.9707 0)
(184.16 -40.0242 0)
(184.825 -40.0895 0)
(185.496 -40.167 0)
(186.175 -40.2571 0)
(186.863 -40.3604 0)
(187.561 -40.4777 0)
(188.27 -40.6091 0)
(188.991 -40.7538 0)
(189.724 -40.9103 0)
(190.469 -41.0765 0)
(191.225 -41.25 0)
(191.994 -41.4284 0)
(192.774 -41.6088 0)
(193.567 -41.7884 0)
(194.371 -41.9644 0)
(195.188 -42.1342 0)
(196.018 -42.2957 0)
(196.86 -42.4475 0)
(197.716 -42.5889 0)
(198.584 -42.7201 0)
(199.465 -42.8417 0)
(200.358 -42.9548 0)
(201.263 -43.0605 0)
(202.179 -43.1602 0)
(203.106 -43.2548 0)
(204.045 -43.3451 0)
(204.995 -43.4316 0)
(205.957 -43.5143 0)
(206.93 -43.593 0)
(207.915 -43.667 0)
(208.912 -43.7354 0)
(209.921 -43.7967 0)
(210.941 -43.8495 0)
(211.973 -43.8918 0)
(213.016 -43.9216 0)
(214.071 -43.9365 0)
(215.136 -43.9342 0)
(216.21 -43.9121 0)
(217.293 -43.8679 0)
(218.383 -43.7991 0)
(219.479 -43.7035 0)
(220.578 -43.5793 0)
(221.679 -43.4246 0)
(222.781 -43.2381 0)
(223.881 -43.0191 0)
(224.979 -42.7674 0)
(226.071 -42.483 0)
(227.155 -42.1668 0)
(228.23 -41.8201 0)
(229.294 -41.445 0)
(230.343 -41.0436 0)
(231.377 -40.6186 0)
(232.392 -40.1731 0)
(233.386 -39.7101 0)
(234.356 -39.2331 0)
(235.301 -38.7452 0)
(236.218 -38.2496 0)
(237.106 -37.7494 0)
(237.961 -37.2474 0)
(238.784 -36.746 0)
(239.572 -36.2476 0)
(240.323 -35.7538 0)
(241.037 -35.2664 0)
(241.71 -34.7864 0)
(242.342 -34.3148 0)
(242.929 -33.8523 0)
(243.471 -33.3992 0)
(243.965 -32.9556 0)
(244.409 -32.5215 0)
(244.801 -32.0967 0)
(245.138 -31.6809 0)
(245.419 -31.2735 0)
(245.64 -30.8742 0)
(245.801 -30.4824 0)
(245.898 -30.0973 0)
(245.93 -29.7183 0)
(245.895 -29.3447 0)
(245.784 -28.9758 0)
(245.591 -28.6106 0)
(245.304 -28.2484 0)
(244.894 -27.888 0)
(244.302 -27.5282 0)
(243.409 -27.1672 0)
(241.974 -26.8017 0)
(239.532 -26.4262 0)
(235.255 -26.0307 0)
(227.809 -25.5966 0)
(215.439 -25.0919 0)
(196.562 -24.4692 0)
(170.998 -23.6718 0)
(141.113 -22.6509 0)
(111.316 -21.3915 0)
(85.5796 -19.9266 0)
(65.3686 -18.3079 0)
(49.9687 -16.5753 0)
(37.9931 -14.752 0)
(28.3536 -12.8649 0)
(20.4342 -10.9288 0)
(13.9545 -8.95765 0)
(8.80333 -6.96775 0)
(4.93964 -4.99732 0)
(2.33134 -3.12291 0)
(0.875281 -1.52956 0)
(0.266701 -0.567882 0)
(0.0715821 -0.166536 0)
(0.0180192 -0.0402024 0)
(0.00437989 -0.00877575 0)
(0.00104178 -0.00185542 0)
(0.000243983 -0.000389128 0)
(5.64527e-005 -8.14407e-005 0)
(1.29337e-005 -1.70317e-005 0)
(2.93887e-006 -3.56006e-006 0)
(6.63118e-007 -7.43815e-007 0)
(1.48721e-007 -1.55341e-007 0)
(3.31794e-008 -3.24297e-008 0)
(7.36942e-009 -6.76909e-009 0)
(1.63101e-009 -1.41431e-009 0)
(3.61746e-010 -2.97383e-010 0)
(8.09305e-011 -6.45155e-011 0)
(2.00819e-011 -1.60035e-011 0)
(5.7474e-012 -5.88477e-012 0)
(3.97748e-012 -3.83464e-012 0)
(2.85911e-012 -3.36602e-012 0)
(3.65656e-012 -3.27364e-012 0)
(3.15086e-012 -3.30524e-012 0)
(3.93858e-012 -3.28397e-012 0)
(3.24811e-012 -3.31375e-012 0)
(3.95803e-012 -3.34901e-012 0)
(3.46206e-012 -3.33928e-012 0)
(3.91913e-012 -3.34779e-012 0)
(3.82188e-012 -3.37575e-012 0)
(3.80243e-012 -3.40979e-012 0)
(3.96775e-012 -3.45112e-012 0)
(3.69545e-012 -3.4651e-012 0)
(3.45233e-012 -3.47786e-012 0)
(3.63711e-012 -3.5046e-012 0)
(3.24811e-012 -3.56599e-012 0)
(3.38426e-012 -3.53256e-012 0)
(2.99526e-012 -3.6292e-012 0)
(2.80077e-012 -3.60489e-012 0)
(2.4215e-012 -3.63771e-012 0)
(2.08112e-012 -3.66993e-012 0)
(307.606 0.553301 0)
(307.525 0.782237 0)
(307.368 0.992656 0)
(307.136 1.18209 0)
(306.851 1.34999 0)
(306.568 1.49625 0)
(306.307 1.62051 0)
(306.065 1.72205 0)
(305.83 1.79993 0)
(305.598 1.85306 0)
(305.364 1.88028 0)
(305.126 1.88039 0)
(304.886 1.85212 0)
(304.643 1.79421 0)
(304.398 1.70543 0)
(304.152 1.58452 0)
(303.904 1.43027 0)
(303.656 1.24148 0)
(303.406 1.01695 0)
(303.154 0.755498 0)
(302.901 0.455937 0)
(302.647 0.117061 0)
(302.389 -0.262356 0)
(302.129 -0.683581 0)
(301.866 -1.14789 0)
(301.601 -1.65656 0)
(301.332 -2.21096 0)
(301.061 -2.81243 0)
(300.785 -3.46235 0)
(300.507 -4.16208 0)
(300.226 -4.91295 0)
(299.943 -5.71626 0)
(299.656 -6.57327 0)
(299.368 -7.48519 0)
(299.077 -8.45314 0)
(298.784 -9.47809 0)
(298.488 -10.5607 0)
(298.191 -11.7012 0)
(297.893 -12.899 0)
(297.592 -14.1532 0)
(297.29 -15.4621 0)
(296.985 -16.823 0)
(296.679 -18.2325 0)
(296.371 -19.6857 0)
(296.06 -21.1762 0)
(295.749 -22.6957 0)
(295.436 -24.2343 0)
(295.12 -25.7801 0)
(294.803 -27.3201 0)
(294.487 -28.8398 0)
(294.174 -30.3244 0)
(293.86 -31.7584 0)
(293.542 -33.1266 0)
(293.222 -34.4141 0)
(292.911 -35.6067 0)
(292.603 -36.6914 0)
(292.282 -37.6577 0)
(291.96 -38.4972 0)
(291.644 -39.2037 0)
(291.331 -39.7738 0)
(291.02 -40.207 0)
(290.71 -40.5058 0)
(290.402 -40.6754 0)
(290.096 -40.7234 0)
(289.792 -40.6593 0)
(289.49 -40.494 0)
(289.191 -40.2394 0)
(288.894 -39.9078 0)
(288.599 -39.5116 0)
(288.306 -39.0625 0)
(288.016 -38.5719 0)
(287.729 -38.05 0)
(287.444 -37.5059 0)
(287.162 -36.9476 0)
(286.882 -36.3819 0)
(286.607 -35.8143 0)
(286.334 -35.2494 0)
(286.065 -34.6906 0)
(285.8 -34.1404 0)
(285.539 -33.6005 0)
(285.281 -33.0721 0)
(285.027 -32.5556 0)
(284.777 -32.0512 0)
(284.53 -31.5587 0)
(284.288 -31.0776 0)
(284.05 -30.607 0)
(283.815 -30.1462 0)
(283.583 -29.6941 0)
(283.355 -29.2494 0)
(283.129 -28.8107 0)
(282.905 -28.3759 0)
(282.678 -27.9417 0)
(282.446 -27.5026 0)
(282.204 -27.0488 0)
(281.947 -26.5631 0)
(281.668 -26.0172 0)
(281.361 -25.3713 0)
(281.025 -24.5784 0)
(280.664 -23.5989 0)
(280.288 -22.4149 0)
(279.904 -21.0358 0)
(279.503 -19.4899 0)
(279.064 -17.8118 0)
(278.544 -16.0324 0)
(277.833 -14.1759 0)
(276.702 -12.2607 0)
(274.742 -10.3012 0)
(271.132 -8.3124 0)
(263.422 -6.31193 0)
(243.984 -4.31622 0)
(193.813 -2.37416 0)
(109.843 -0.883283 0)
(40.5047 -0.21548 0)
(11.1197 -0.0435174 0)
(2.59882 -0.00892748 0)
(0.562078 -0.00186212 0)
(0.118598 -0.000389424 0)
(0.0248668 -8.14537e-005 0)
(0.00520515 -1.70322e-005 0)
(0.0010888 -3.56009e-006 0)
(0.000227645 -7.43817e-007 0)
(4.75745e-005 -1.55341e-007 0)
(9.938e-006 -3.24296e-008 0)
(2.07506e-006 -6.76904e-009 0)
(4.3308e-007 -1.41425e-009 0)
(9.03467e-008 -2.97307e-010 0)
(1.884e-008 -6.4461e-011 0)
(3.92801e-009 -1.59513e-011 0)
(8.19535e-010 -5.82816e-012 0)
(1.72014e-010 -3.73661e-012 0)
(3.71991e-011 -3.30455e-012 0)
(9.63597e-012 -3.21876e-012 0)
(3.51207e-012 -3.2119e-012 0)
(1.9672e-012 -3.21312e-012 0)
(1.78938e-012 -3.25757e-012 0)
(1.34481e-012 -3.24229e-012 0)
(1.4115e-012 -3.27789e-012 0)
(7.11306e-013 -3.28623e-012 0)
(8.89132e-013 -3.34519e-012 0)
(1.00027e-013 -3.32226e-012 0)
(3.00082e-013 -3.39303e-012 0)
(2.11169e-013 -3.39737e-012 0)
(3.11196e-013 -3.42194e-012 0)
(-3.00082e-013 -3.47925e-012 0)
(-3.44539e-013 -3.48264e-012 0)
(-7.44648e-013 -3.4657e-012 0)
(-5.22365e-013 -3.5758e-012 0)
(-6.89077e-013 -3.54698e-012 0)
(-4.5568e-013 -3.58041e-012 0)
(-7.66876e-013 -3.61166e-012 0)
)
;

boundaryField
{
    inlet
    {
        type            zeroGradient;
    }
    outlet
    {
        type            zeroGradient;
    }
    bottom
    {
        type            symmetryPlane;
    }
    top
    {
        type            symmetryPlane;
    }
    obstacle
    {
        type            zeroGradient;
    }
    defaultFaces
    {
        type            empty;
    }
}


// ************************************************************************* //
