/*--------------------------------*- C++ -*----------------------------------*\
| =========                 |                                                 |
| \\      /  F ield         | OpenFOAM: The Open Source CFD Toolbox           |
|  \\    /   O peration     | Version:  5.x                                   |
|   \\  /    A nd           | Web:      www.OpenFOAM.org                      |
|    \\/     M anipulation  |                                                 |
\*---------------------------------------------------------------------------*/
/*   Windows 32 and 64 bit porting by blueCAPE: http://www.bluecape.com.pt   *\
|  Based on Windows porting (2.0.x v4) by Symscape: http://www.symscape.com   |
\*---------------------------------------------------------------------------*/
FoamFile
{
    version     2.0;
    format      ascii;
    class       volScalarField;
    location    "0.01";
    object      mag(U);
}
// * * * * * * * * * * * * * * * * * * * * * * * * * * * * * * * * * * * * * //

dimensions      [0 1 -1 0 0 0 0];

internalField   nonuniform List<scalar> 
100
(
28.5705
94.2047
173.097
227.853
259.24
270.792
28.5703
94.2061
173.091
227.934
259.166
270.516
28.5701
94.2076
173.085
228.03
259.078
270.248
28.5699
94.2089
173.08
228.115
259.002
270.129
28.5697
94.2098
173.076
228.185
258.951
270.542
28.5694
94.2119
173.067
228.334
258.753
279.456
28.5684
94.2174
173.045
228.551
258.545
278.064
28.5662
94.2295
173.014
228.806
258.603
277.038
28.5599
94.2541
172.932
229.03
258.971
276.881
28.5506
94.2683
172.808
228.987
259.094
276.946
287.968
294.921
287.045
295.741
286.523
297.187
286.019
297.979
285.866
297.705
129.525
157.163
150.199
248.909
258.559
215.674
331.709
336.104
280.367
353.911
357.309
301.245
348.868
352.082
299.88
301.412
323.944
290.865
302.415
323.109
285.729
304.868
322.68
284.856
306.381
321.468
286.975
305.974
320.045
286.241
)
;

boundaryField
{
    inlet
    {
        type            calculated;
        value           nonuniform List<scalar> 10(28.5694 28.5684 28.5662 28.5599 28.5506 28.5705 28.5703 28.5701 28.5699 28.5697);
    }
    outlet
    {
        type            calculated;
        value           nonuniform List<scalar> 10(290.865 285.729 284.856 286.975 286.241 150.199 215.674 280.367 301.245 299.88);
    }
    bottom
    {
        type            symmetryPlane;
    }
    top
    {
        type            symmetryPlane;
    }
    obstacle
    {
        type            calculated;
        value           nonuniform List<scalar> 
12
(
270.792
270.516
270.248
270.129
270.542
129.525
248.909
331.709
353.911
348.868
287.968
294.921
)
;
    }
    defaultFaces
    {
        type            empty;
    }
}


// ************************************************************************* //
