/*--------------------------------*- C++ -*----------------------------------*\
| =========                 |                                                 |
| \\      /  F ield         | OpenFOAM: The Open Source CFD Toolbox           |
|  \\    /   O peration     | Version:  5.x                                   |
|   \\  /    A nd           | Web:      www.OpenFOAM.org                      |
|    \\/     M anipulation  |                                                 |
\*---------------------------------------------------------------------------*/
/*   Windows 32 and 64 bit porting by blueCAPE: http://www.bluecape.com.pt   *\
|  Based on Windows porting (2.0.x v4) by Symscape: http://www.symscape.com   |
\*---------------------------------------------------------------------------*/
FoamFile
{
    version     2.0;
    format      ascii;
    class       volScalarField;
    location    "0.01";
    object      p;
}
// * * * * * * * * * * * * * * * * * * * * * * * * * * * * * * * * * * * * * //

dimensions      [1 -1 -2 0 0 0 0];

internalField   nonuniform List<scalar> 
100
(
84568.9
69118.6
50068.4
40140
34381.7
31419.4
84568.9
69118.6
50067.9
40145.7
34331.2
31487.8
84568.9
69118.7
50067.3
40151.6
34270.7
31565.4
84568.9
69118.7
50066.7
40156.2
34219.2
31629.9
84568.9
69118.8
50066.3
40159.6
34180.8
31676.7
84568.9
69118.8
50065.4
40166.8
34088
31802.5
84568.8
69119
50063
40184.6
33942
31943.5
84568.6
69119.3
50060.6
40203.4
33786.6
32064.5
84568
69120
50041.9
40172.9
33676.1
32040.8
84567.5
69129.6
50027.3
40182.9
33599.2
31900.6
29530.2
28652.6
29828.5
28816
30227.8
29010.5
30293.6
29106
30087.3
28937.7
28387
28451.7
28968.1
28385.5
28449.3
28881.1
28450.6
28504.3
28879
28434.4
28525.5
28845.4
28478.5
28559.7
28831.3
28455.1
28597.9
28786
28463.2
28686.1
28747.3
28338.1
28483.1
28804.4
27972.9
28097.8
28101.8
27580.4
27592.8
27382.4
)
;

boundaryField
{
    inlet
    {
        type            zeroGradient;
    }
    outlet
    {
        type            zeroGradient;
    }
    bottom
    {
        type            symmetryPlane;
    }
    top
    {
        type            symmetryPlane;
    }
    obstacle
    {
        type            zeroGradient;
    }
    defaultFaces
    {
        type            empty;
    }
}


// ************************************************************************* //
