/*--------------------------------*- C++ -*----------------------------------*\
| =========                 |                                                 |
| \\      /  F ield         | OpenFOAM: The Open Source CFD Toolbox           |
|  \\    /   O peration     | Version:  5.x                                   |
|   \\  /    A nd           | Web:      www.OpenFOAM.org                      |
|    \\/     M anipulation  |                                                 |
\*---------------------------------------------------------------------------*/
/*   Windows 32 and 64 bit porting by blueCAPE: http://www.bluecape.com.pt   *\
|  Based on Windows porting (2.0.x v4) by Symscape: http://www.symscape.com   |
\*---------------------------------------------------------------------------*/
FoamFile
{
    version     2.0;
    format      ascii;
    class       surfaceScalarField;
    location    "0.01";
    object      phi;
}
// * * * * * * * * * * * * * * * * * * * * * * * * * * * * * * * * * * * * * //

dimensions      [1 0 -1 0 0 0 0];

internalField   nonuniform List<scalar> 
174
(
15.5999
0.00523576
21.7747
-0.0256669
24.5344
0.084328
23.1327
-0.119486
19.486
0.945965
-0.276023
10.4324
0.00856101
14.5614
-0.0423324
16.4122
0.135896
15.4598
-0.188126
13.0304
1.59681
-0.502412
6.97665
0.0106666
9.7376
-0.0531191
10.9794
0.16656
10.3305
-0.225057
8.71876
2.03558
-0.649553
4.66561
0.0120145
6.51183
-0.0601375
7.34448
0.185013
6.90385
-0.245006
5.8413
2.32537
-0.745821
3.1201
0.012889
4.35468
-0.0647385
4.91238
0.196434
4.61537
-0.257229
3.92999
2.50299
-0.84428
13.2431
0.0162764
18.4829
-0.0836487
20.8622
0.233619
19.5501
-0.271032
18.0366
1.91125
-0.195067
16.1267
23.551
0.0209974
32.8657
-0.113011
37.1293
0.274445
34.7113
-0.243142
31.8908
1.13902
0.347551
28.9563
41.8841
0.0242934
58.4401
-0.154172
66.0915
0.295222
61.6783
-0.307107
56.4188
0.51105
0.454559
51.9149
74.4946
0.0170924
103.89
-0.144785
117.588
0.154855
109.67
-0.368033
99.9736
0.0442642
0.1287
92.0082
132.469
184.66
209.034
195.002
177.226
162.412
15.7482
-0.17265
-0.160575
15.3357
28.1776
-0.0626928
-0.0795053
27.3364
50.4421
0.0791808
0.0702637
48.8296
89.3941
0.0400189
0.0377143
86.8538
157.587
152.968
6.74858
-0.2318
7.68377
-1.12246
-0.521844
7.98501
-0.135782
7.81308
-0.930721
-0.0221917
6.72956
-0.0114083
6.53008
-0.652322
0.492232
4.78797
0.106075
4.6949
-0.480792
0.775143
3.24618
0.191063
3.16386
-0.355256
0.89606
14.841
0.0530697
13.422
-0.203789
0.83249
26.1873
0.103986
23.7184
-0.10854
0.867373
46.782
0.225794
42.0223
0.269485
1.10652
82.8368
0.0769778
73.997
-0.163512
-1.26513
147.849
135.816
)
;

boundaryField
{
    inlet
    {
        type            calculated;
        value           nonuniform List<scalar> 10(-4.11891 -7.32431 -13.0236 -23.1544 -41.1614 -4.85238 -3.24495 -2.17001 -1.45117 -0.970448);
    }
    outlet
    {
        type            calculated;
        value           nonuniform List<scalar> 10(11.6331 20.4405 36.3901 64.0904 111.681 7.38062 6.81292 5.70445 4.12742 2.78458);
    }
    bottom
    {
        type            symmetryPlane;
        value           uniform 0;
    }
    top
    {
        type            symmetryPlane;
        value           uniform 0;
    }
    obstacle
    {
        type            calculated;
        value           nonuniform List<scalar> 
12
(
18.1491
12.1435
8.12712
5.44343
3.66184
-6.59267
-8.08765
-6.84691
-4.89599
-3.31529
0.16318
0.133691
)
;
    }
    defaultFaces
    {
        type            empty;
        value           nonuniform 0();
    }
}


// ************************************************************************* //
