/*--------------------------------*- C++ -*----------------------------------*\
| =========                 |                                                 |
| \\      /  F ield         | OpenFOAM: The Open Source CFD Toolbox           |
|  \\    /   O peration     | Version:  5.x                                   |
|   \\  /    A nd           | Web:      www.OpenFOAM.org                      |
|    \\/     M anipulation  |                                                 |
\*---------------------------------------------------------------------------*/
/*   Windows 32 and 64 bit porting by blueCAPE: http://www.bluecape.com.pt   *\
|  Based on Windows porting (2.0.x v4) by Symscape: http://www.symscape.com   |
\*---------------------------------------------------------------------------*/
FoamFile
{
    version     2.0;
    format      ascii;
    class       volScalarField;
    location    "0.01";
    object      T;
}
// * * * * * * * * * * * * * * * * * * * * * * * * * * * * * * * * * * * * * //

dimensions      [0 0 0 1 0 0 0];

internalField   nonuniform List<scalar> 
100
(
330.444
319.767
273.513
273.4
279.514
311.472
330.444
319.767
273.508
273.401
279.48
311.667
330.444
319.767
273.503
273.401
279.426
311.884
330.444
319.767
273.498
273.414
279.338
311.898
330.444
319.767
273.491
273.454
279.139
310.99
330.444
319.767
273.482
273.458
279.584
290.543
330.444
319.765
273.468
273.471
279.52
291.018
330.444
319.763
273.452
273.471
279.431
291.841
330.444
319.756
273.43
273.341
279.415
292.481
330.444
319.76
273.435
273.288
279.352
292.473
304.162
309.422
304.031
312.108
306.492
314.343
307.84
316.263
307.875
316.558
370.175
367.823
391.745
388.269
385.426
406.359
409.662
405.177
421.87
408.539
402.177
418.46
398.33
390.247
412.709
321.541
352.155
406.051
320.926
352.784
403.147
322.565
353.285
402.249
323.274
351.988
399.193
322.776
350.361
395.914
)
;

boundaryField
{
    inlet
    {
        type            zeroGradient;
    }
    outlet
    {
        type            zeroGradient;
    }
    bottom
    {
        type            symmetryPlane;
    }
    top
    {
        type            symmetryPlane;
    }
    obstacle
    {
        type            zeroGradient;
    }
    defaultFaces
    {
        type            empty;
    }
}


// ************************************************************************* //
