/*--------------------------------*- C++ -*----------------------------------*\
| =========                 |                                                 |
| \\      /  F ield         | OpenFOAM: The Open Source CFD Toolbox           |
|  \\    /   O peration     | Version:  5.x                                   |
|   \\  /    A nd           | Web:      www.OpenFOAM.org                      |
|    \\/     M anipulation  |                                                 |
\*---------------------------------------------------------------------------*/
/*   Windows 32 and 64 bit porting by blueCAPE: http://www.bluecape.com.pt   *\
|  Based on Windows porting (2.0.x v4) by Symscape: http://www.symscape.com   |
\*---------------------------------------------------------------------------*/
FoamFile
{
    version     2.0;
    format      ascii;
    class       volVectorField;
    location    "0.01";
    object      U;
}
// * * * * * * * * * * * * * * * * * * * * * * * * * * * * * * * * * * * * * //

dimensions      [0 1 -1 0 0 0 0];

internalField   nonuniform List<vector> 
100
(
(28.5705 0.000614737 0)
(94.2047 -0.00491324 0)
(173.097 0.0266901 0)
(227.853 -0.0649289 0)
(259.239 0.802846 0)
(270.791 -0.384909 0)
(28.5703 0.001613 0)
(94.2061 -0.0129737 0)
(173.091 0.0689494 0)
(227.934 -0.165308 0)
(259.157 2.17928 0)
(270.514 -1.15064 0)
(28.5701 0.00224072 0)
(94.2076 -0.0181683 0)
(173.085 0.0939973 0)
(228.03 -0.221112 0)
(259.059 3.19136 0)
(270.242 -1.71073 0)
(28.5699 0.00264122 0)
(94.2089 -0.0215426 0)
(173.08 0.109026 0)
(228.115 -0.249607 0)
(258.974 3.8072 0)
(270.122 -1.98906 0)
(28.5697 0.00290019 0)
(94.2098 -0.023755 0)
(173.076 0.118345 0)
(228.185 -0.267619 0)
(258.914 4.38043 0)
(270.531 -2.45369 0)
(28.5694 0.0034147 0)
(94.2119 -0.0283867 0)
(173.067 0.133704 0)
(228.334 -0.29818 0)
(258.722 4.02083 0)
(279.453 -1.24623 0)
(28.5684 0.00440799 0)
(94.2174 -0.0369277 0)
(173.045 0.163069 0)
(228.551 -0.244192 0)
(258.533 2.51303 0)
(278.063 0.586423 0)
(28.5662 0.00571392 0)
(94.2295 -0.0554838 0)
(173.014 0.196804 0)
(228.806 -0.293151 0)
(258.6 1.37479 0)
(277.034 1.47758 0)
(28.5599 0.00515946 0)
(94.2541 -0.0652549 0)
(172.932 0.137415 0)
(229.03 -0.449653 0)
(258.971 0.234709 0)
(276.881 0.590537 0)
(28.5506 0.00194026 0)
(94.2683 -0.0306235 0)
(172.808 0.0310329 0)
(228.987 -0.238125 0)
(259.094 -0.173221 0)
(276.946 -0.140273 0)
(287.961 -1.97252 0)
(294.916 -1.68345 0)
(287.041 -1.54047 0)
(295.734 -2.10173 0)
(286.522 0.887277 0)
(297.185 0.911078 0)
(286.018 0.693925 0)
(297.979 0.689269 0)
(285.866 -0.0688267 0)
(297.705 -0.056953 0)
(129.353 -6.66788 0)
(156.962 -7.94869 0)
(150.173 -2.82709 0)
(248.907 -0.919883 0)
(258.546 -2.62975 0)
(215.674 0.533101 0)
(331.704 -1.84805 0)
(336.081 -3.9479 0)
(280.367 -0.359344 0)
(353.91 0.862632 0)
(357.303 -1.99478 0)
(301.242 1.18346 0)
(348.862 2.1466 0)
(352.079 -1.56177 0)
(299.878 1.01862 0)
(301.41 0.989751 0)
(323.944 0.0246297 0)
(290.861 1.3789 0)
(302.415 -0.0640079 0)
(323.104 -1.79336 0)
(285.728 0.48791 0)
(304.856 2.79348 0)
(322.674 1.84913 0)
(284.844 2.65593 0)
(306.378 1.38121 0)
(321.468 -0.585503 0)
(286.972 -1.38838 0)
(305.974 -0.0503555 0)
(320.044 -0.808198 0)
(286.228 -2.66418 0)
)
;

boundaryField
{
    inlet
    {
        type            zeroGradient;
    }
    outlet
    {
        type            zeroGradient;
    }
    bottom
    {
        type            symmetryPlane;
    }
    top
    {
        type            symmetryPlane;
    }
    obstacle
    {
        type            zeroGradient;
    }
    defaultFaces
    {
        type            empty;
    }
}


// ************************************************************************* //
