0.005 	348.375 	0.162589 	99942.9
0.015 	348.372 	0.169554 	99940.4
0.025 	348.37 	0.176519 	99937.8
0.035 	348.367 	0.183484 	99935.2
0.045 	348.364 	0.190448 	99932.7
0.055 	348.362 	0.197413 	99930.1
0.065 	348.359 	0.204378 	99927.6
0.075 	348.357 	0.211343 	99925
0.085 	348.354 	0.218307 	99922.4
0.095 	348.352 	0.225272 	99919.9
0.105 	348.349 	0.232237 	99917.3
0.115 	348.347 	0.239202 	99914.7
0.125 	348.344 	0.246166 	99912.2
0.135 	348.341 	0.253131 	99909.6
0.145 	348.339 	0.260096 	99907.1
0.155 	348.336 	0.267061 	99904.5
0.165 	348.334 	0.274025 	99901.9
0.175 	348.331 	0.28099 	99899.4
0.185 	348.329 	0.287955 	99896.8
0.195 	348.326 	0.29492 	99894.3
0.205 	348.324 	0.301884 	99891.7
0.215 	348.321 	0.308849 	99889.1
0.225 	348.318 	0.315814 	99886.6
0.235 	348.316 	0.322779 	99884
0.245 	348.313 	0.329743 	99881.4
0.255 	348.311 	0.336708 	99878.9
0.265 	348.308 	0.343673 	99876.3
0.275 	348.306 	0.350638 	99873.8
0.285 	348.303 	0.357602 	99871.2
0.295 	348.3 	0.364567 	99868.6
0.305 	348.298 	0.371532 	99866.1
0.315 	348.295 	0.378497 	99863.5
0.325 	348.293 	0.385461 	99861
0.335 	348.29 	0.392426 	99858.4
0.345 	348.288 	0.399391 	99855.8
0.355 	348.285 	0.406356 	99853.3
0.365 	348.283 	0.41332 	99850.7
0.375 	348.28 	0.420285 	99848.2
0.385 	348.27 	0.446877 	99838.2
0.395 	348.26 	0.473469 	99828.2
0.405 	348.25 	0.500061 	99818.2
0.415 	348.24 	0.526653 	99808.2
0.425 	348.23 	0.553245 	99798.2
0.435 	348.22 	0.579836 	99788.3
0.445 	348.21 	0.606428 	99778.3
0.455 	348.2 	0.63302 	99768.3
0.465 	348.19 	0.659612 	99758.3
0.475 	348.18 	0.686204 	99748.3
0.485 	348.17 	0.712796 	99738.3
0.495 	348.16 	0.739388 	99728.4
0.505 	348.15 	0.76598 	99718.4
0.515 	348.14 	0.792572 	99708.4
0.525 	348.13 	0.819164 	99698.4
0.535 	348.12 	0.845756 	99688.4
0.545 	348.11 	0.872347 	99678.4
0.555 	348.1 	0.898939 	99668.5
0.565 	348.09 	0.925531 	99658.5
0.575 	348.08 	0.952123 	99648.5
0.585 	348.07 	0.978715 	99638.5
0.595 	348.06 	1.00531 	99628.5
0.605 	348.05 	1.0319 	99618.5
0.615 	348.04 	1.05849 	99608.6
0.625 	348.03 	1.08508 	99598.6
0.635 	348.02 	1.11167 	99588.6
0.645 	348.01 	1.13827 	99578.6
0.655 	348 	1.16486 	99568.6
0.665 	347.99 	1.19145 	99558.7
0.675 	347.98 	1.21804 	99548.7
0.685 	347.97 	1.24463 	99538.7
0.695 	347.96 	1.27123 	99528.7
0.705 	347.95 	1.29782 	99518.7
0.715 	347.94 	1.32441 	99508.7
0.725 	347.93 	1.351 	99498.8
0.735 	347.92 	1.37759 	99488.8
0.745 	347.91 	1.40419 	99478.8
0.755 	347.892 	1.45152 	99460.8
0.765 	347.866 	1.51959 	99434.8
0.775 	347.84 	1.58766 	99408.7
0.785 	347.814 	1.65573 	99382.7
0.795 	347.788 	1.7238 	99356.7
0.805 	347.762 	1.79188 	99330.7
0.815 	347.736 	1.85995 	99304.6
0.825 	347.71 	1.92802 	99278.6
0.835 	347.684 	1.99609 	99252.6
0.845 	347.657 	2.06416 	99226.5
0.855 	347.631 	2.13223 	99200.5
0.865 	347.605 	2.20031 	99174.5
0.875 	347.579 	2.26838 	99148.5
0.885 	347.553 	2.33645 	99122.4
0.895 	347.527 	2.40452 	99096.4
0.905 	347.501 	2.47259 	99070.4
0.915 	347.475 	2.54066 	99044.4
0.925 	347.449 	2.60874 	99018.3
0.935 	347.423 	2.67681 	98992.3
0.945 	347.396 	2.74488 	98966.3
0.955 	347.37 	2.81295 	98940.3
0.965 	347.344 	2.88102 	98914.2
0.975 	347.318 	2.94909 	98888.2
0.985 	347.292 	3.01717 	98862.2
0.995 	347.266 	3.08524 	98836.1
1.005 	347.24 	3.15331 	98810.1
1.015 	347.214 	3.22138 	98784.1
1.025 	347.188 	3.28945 	98758.1
1.035 	347.161 	3.35752 	98732
1.045 	347.135 	3.4256 	98706
1.055 	347.109 	3.49367 	98680
1.065 	347.083 	3.56174 	98654
1.075 	347.057 	3.62981 	98627.9
1.085 	347.031 	3.69788 	98601.9
1.095 	347.005 	3.76595 	98575.9
1.105 	346.979 	3.83403 	98549.9
1.115 	346.953 	3.9021 	98523.8
1.125 	346.927 	3.97017 	98497.8
1.135 	346.869 	4.1211 	98441.2
1.145 	346.812 	4.27203 	98384.5
1.155 	346.755 	4.42295 	98327.9
1.165 	346.697 	4.57388 	98271.2
1.175 	346.64 	4.72481 	98214.6
1.185 	346.583 	4.87574 	98158
1.195 	346.525 	5.02667 	98101.3
1.205 	346.468 	5.17759 	98044.7
1.215 	346.411 	5.32852 	97988.1
1.225 	346.354 	5.47945 	97931.4
1.235 	346.296 	5.63038 	97874.8
1.245 	346.239 	5.78131 	97818.1
1.255 	346.182 	5.93223 	97761.5
1.265 	346.124 	6.08316 	97704.9
1.275 	346.067 	6.23409 	97648.2
1.285 	346.01 	6.38502 	97591.6
1.295 	345.953 	6.53595 	97534.9
1.305 	345.895 	6.68687 	97478.3
1.315 	345.838 	6.8378 	97421.7
1.325 	345.781 	6.98873 	97365
1.335 	345.723 	7.13966 	97308.4
1.345 	345.666 	7.29059 	97251.7
1.355 	345.609 	7.44151 	97195.1
1.365 	345.551 	7.59244 	97138.5
1.375 	345.494 	7.74337 	97081.8
1.385 	345.437 	7.8943 	97025.2
1.395 	345.38 	8.04523 	96968.6
1.405 	345.322 	8.19615 	96911.9
1.415 	345.265 	8.34708 	96855.3
1.425 	345.208 	8.49801 	96798.6
1.435 	345.15 	8.64894 	96742
1.445 	345.093 	8.79987 	96685.4
1.455 	345.036 	8.95079 	96628.7
1.465 	344.979 	9.10172 	96572.1
1.475 	344.921 	9.25265 	96515.4
1.485 	344.864 	9.40358 	96458.8
1.495 	344.807 	9.55451 	96402.2
1.505 	344.724 	9.77274 	96321.6
1.515 	344.616 	10.0583 	96217.1
1.525 	344.508 	10.3438 	96112.5
1.535 	344.4 	10.6293 	96008
1.545 	344.293 	10.9149 	95903.5
1.555 	344.185 	11.2004 	95798.9
1.565 	344.077 	11.4859 	95694.4
1.575 	343.969 	11.7715 	95589.9
1.585 	343.861 	12.057 	95485.3
1.595 	343.753 	12.3425 	95380.8
1.605 	343.645 	12.6281 	95276.3
1.615 	343.538 	12.9136 	95171.7
1.625 	343.43 	13.1991 	95067.2
1.635 	343.322 	13.4847 	94962.7
1.645 	343.214 	13.7702 	94858.2
1.655 	343.106 	14.0557 	94753.6
1.665 	342.998 	14.3413 	94649.1
1.675 	342.89 	14.6268 	94544.6
1.685 	342.782 	14.9124 	94440
1.695 	342.675 	15.1979 	94335.5
1.705 	342.567 	15.4834 	94231
1.715 	342.459 	15.769 	94126.4
1.725 	342.351 	16.0545 	94021.9
1.735 	342.243 	16.34 	93917.4
1.745 	342.135 	16.6256 	93812.8
1.755 	342.027 	16.9111 	93708.3
1.765 	341.92 	17.1966 	93603.8
1.775 	341.812 	17.4822 	93499.3
1.785 	341.704 	17.7677 	93394.7
1.795 	341.596 	18.0532 	93290.2
1.805 	341.488 	18.3388 	93185.7
1.815 	341.38 	18.6243 	93081.1
1.825 	341.272 	18.9098 	92976.6
1.835 	341.164 	19.1954 	92872.1
1.845 	341.057 	19.4809 	92767.5
1.855 	340.949 	19.7664 	92663
1.865 	340.841 	20.052 	92558.5
1.875 	340.733 	20.3375 	92454
1.885 	340.56 	20.7993 	92292.2
1.895 	340.386 	21.261 	92130.4
1.905 	340.213 	21.7228 	91968.6
1.915 	340.039 	22.1845 	91806.8
1.925 	339.866 	22.6463 	91645.1
1.935 	339.692 	23.108 	91483.3
1.945 	339.519 	23.5698 	91321.5
1.955 	339.345 	24.0315 	91159.7
1.965 	339.172 	24.4933 	90998
1.975 	338.998 	24.9551 	90836.2
1.985 	338.825 	25.4168 	90674.4
1.995 	338.651 	25.8786 	90512.6
2.005 	338.478 	26.3403 	90350.9
2.015 	338.304 	26.8021 	90189.1
2.025 	338.131 	27.2638 	90027.3
2.035 	337.957 	27.7256 	89865.5
2.045 	337.784 	28.1874 	89703.8
2.055 	337.61 	28.6491 	89542
2.065 	337.437 	29.1109 	89380.2
2.075 	337.263 	29.5726 	89218.4
2.085 	337.09 	30.0344 	89056.7
2.095 	336.916 	30.4961 	88894.9
2.105 	336.743 	30.9579 	88733.1
2.115 	336.569 	31.4196 	88571.3
2.125 	336.396 	31.8814 	88409.6
2.135 	336.222 	32.3432 	88247.8
2.145 	336.049 	32.8049 	88086
2.155 	335.875 	33.2667 	87924.2
2.165 	335.702 	33.7284 	87762.4
2.175 	335.528 	34.1902 	87600.7
2.185 	335.355 	34.6519 	87438.9
2.195 	335.181 	35.1137 	87277.1
2.205 	335.008 	35.5754 	87115.3
2.215 	334.834 	36.0372 	86953.6
2.225 	334.661 	36.499 	86791.8
2.235 	334.487 	36.9607 	86630
2.245 	334.314 	37.4225 	86468.2
2.255 	334.11 	37.9756 	86283.8
2.265 	333.875 	38.62 	86076.6
2.275 	333.641 	39.2644 	85869.5
2.285 	333.406 	39.9089 	85662.3
2.295 	333.171 	40.5533 	85455.2
2.305 	332.937 	41.1977 	85248
2.315 	332.702 	41.8421 	85040.8
2.325 	332.468 	42.4866 	84833.7
2.335 	332.233 	43.131 	84626.5
2.345 	331.999 	43.7754 	84419.4
2.355 	331.764 	44.4199 	84212.2
2.365 	331.53 	45.0643 	84005.1
2.375 	331.295 	45.7087 	83797.9
2.385 	331.06 	46.3532 	83590.8
2.395 	330.826 	46.9976 	83383.6
2.405 	330.591 	47.642 	83176.5
2.415 	330.357 	48.2865 	82969.3
2.425 	330.122 	48.9309 	82762.1
2.435 	329.888 	49.5753 	82555
2.445 	329.653 	50.2197 	82347.8
2.455 	329.419 	50.8642 	82140.7
2.465 	329.184 	51.5086 	81933.5
2.475 	328.949 	52.153 	81726.4
2.485 	328.715 	52.7975 	81519.2
2.495 	328.48 	53.4419 	81312.1
2.505 	328.246 	54.0863 	81104.9
2.515 	328.011 	54.7308 	80897.8
2.525 	327.777 	55.3752 	80690.6
2.535 	327.542 	56.0196 	80483.4
2.545 	327.307 	56.6641 	80276.3
2.555 	327.073 	57.3085 	80069.1
2.565 	326.838 	57.9529 	79862
2.575 	326.604 	58.5973 	79654.8
2.585 	326.369 	59.2418 	79447.7
2.595 	326.135 	59.8862 	79240.5
2.605 	325.9 	60.5306 	79033.4
2.615 	325.666 	61.1751 	78826.2
2.625 	325.431 	61.8195 	78619.1
2.635 	325.147 	62.5929 	78389.7
2.645 	324.862 	63.3663 	78160.3
2.655 	324.578 	64.1397 	77930.9
2.665 	324.293 	64.9131 	77701.6
2.675 	324.009 	65.6865 	77472.2
2.685 	323.724 	66.4599 	77242.8
2.695 	323.44 	67.2333 	77013.4
2.705 	323.155 	68.0067 	76784.1
2.715 	322.871 	68.7801 	76554.7
2.725 	322.586 	69.5535 	76325.3
2.735 	322.302 	70.3269 	76096
2.745 	322.018 	71.1003 	75866.6
2.755 	321.733 	71.8737 	75637.2
2.765 	321.449 	72.6471 	75407.8
2.775 	321.164 	73.4205 	75178.5
2.785 	320.88 	74.1939 	74949.1
2.795 	320.595 	74.9673 	74719.7
2.805 	320.311 	75.7407 	74490.4
2.815 	320.026 	76.5142 	74261
2.825 	319.742 	77.2876 	74031.6
2.835 	319.457 	78.061 	73802.2
2.845 	319.173 	78.8344 	73572.9
2.855 	318.889 	79.6078 	73343.5
2.865 	318.604 	80.3812 	73114.1
2.875 	318.32 	81.1546 	72884.8
2.885 	318.035 	81.928 	72655.4
2.895 	317.751 	82.7014 	72426
2.905 	317.466 	83.4748 	72196.6
2.915 	317.182 	84.2482 	71967.3
2.925 	316.897 	85.0216 	71737.9
2.935 	316.613 	85.795 	71508.5
2.945 	316.328 	86.5684 	71279.1
2.955 	316.044 	87.3418 	71049.8
2.965 	315.76 	88.1152 	70820.4
2.975 	315.475 	88.8886 	70591
2.985 	315.191 	89.662 	70361.7
2.995 	314.906 	90.4354 	70132.3
3.005 	314.625 	91.2408 	69906.2
3.015 	314.348 	92.0781 	69683.3
3.025 	314.071 	92.9154 	69460.5
3.035 	313.793 	93.7528 	69237.6
3.045 	313.516 	94.5901 	69014.8
3.055 	313.238 	95.4274 	68791.9
3.065 	312.961 	96.2647 	68569.1
3.075 	312.684 	97.1021 	68346.2
3.085 	312.406 	97.9394 	68123.4
3.095 	312.129 	98.7767 	67900.5
3.105 	311.852 	99.6141 	67677.7
3.115 	311.574 	100.451 	67454.8
3.125 	311.297 	101.289 	67232
3.135 	311.019 	102.126 	67009.2
3.145 	310.742 	102.963 	66786.3
3.155 	310.465 	103.801 	66563.5
3.165 	310.187 	104.638 	66340.6
3.175 	309.91 	105.475 	66117.8
3.185 	309.633 	106.313 	65894.9
3.195 	309.355 	107.15 	65672.1
3.205 	309.078 	107.987 	65449.2
3.215 	308.8 	108.825 	65226.4
3.225 	308.523 	109.662 	65003.5
3.235 	308.246 	110.499 	64780.7
3.245 	307.968 	111.337 	64557.8
3.255 	307.691 	112.174 	64335
3.265 	307.414 	113.011 	64112.1
3.275 	307.136 	113.849 	63889.3
3.285 	306.859 	114.686 	63666.4
3.295 	306.581 	115.523 	63443.6
3.305 	306.304 	116.361 	63220.7
3.315 	306.027 	117.198 	62997.9
3.325 	305.749 	118.035 	62775
3.335 	305.472 	118.873 	62552.2
3.345 	305.195 	119.71 	62329.3
3.355 	304.917 	120.547 	62106.5
3.365 	304.64 	121.385 	61883.6
3.375 	304.363 	122.222 	61660.8
3.385 	304.038 	123.076 	61462.6
3.395 	303.713 	123.931 	61264.4
3.405 	303.388 	124.785 	61066.1
3.415 	303.063 	125.639 	60867.9
3.425 	302.738 	126.494 	60669.7
3.435 	302.413 	127.348 	60471.5
3.445 	302.088 	128.202 	60273.2
3.455 	301.764 	129.057 	60075
3.465 	301.439 	129.911 	59876.8
3.475 	301.114 	130.765 	59678.6
3.485 	300.789 	131.62 	59480.4
3.495 	300.464 	132.474 	59282.1
3.505 	300.139 	133.328 	59083.9
3.515 	299.814 	134.182 	58885.7
3.525 	299.49 	135.037 	58687.5
3.535 	299.165 	135.891 	58489.2
3.545 	298.84 	136.745 	58291
3.555 	298.515 	137.6 	58092.8
3.565 	298.19 	138.454 	57894.6
3.575 	297.865 	139.308 	57696.3
3.585 	297.54 	140.163 	57498.1
3.595 	297.215 	141.017 	57299.9
3.605 	296.891 	141.871 	57101.7
3.615 	296.566 	142.726 	56903.5
3.625 	296.241 	143.58 	56705.2
3.635 	295.916 	144.434 	56507
3.645 	295.591 	145.289 	56308.8
3.655 	295.266 	146.143 	56110.6
3.665 	294.941 	146.997 	55912.3
3.675 	294.617 	147.852 	55714.1
3.685 	294.292 	148.706 	55515.9
3.695 	293.967 	149.56 	55317.7
3.705 	293.642 	150.415 	55119.5
3.715 	293.317 	151.269 	54921.2
3.725 	292.992 	152.123 	54723
3.735 	292.667 	152.978 	54524.8
3.745 	292.342 	153.832 	54326.6
3.755 	292.052 	154.666 	54141.2
3.765 	291.797 	155.481 	53968.6
3.775 	291.542 	156.295 	53796.1
3.785 	291.287 	157.109 	53623.6
3.795 	291.032 	157.924 	53451
3.805 	290.776 	158.738 	53278.5
3.815 	290.521 	159.553 	53106
3.825 	290.266 	160.367 	52933.4
3.835 	290.011 	161.181 	52760.9
3.845 	289.756 	161.996 	52588.3
3.855 	289.501 	162.81 	52415.8
3.865 	289.245 	163.624 	52243.3
3.875 	288.99 	164.439 	52070.7
3.885 	288.735 	165.253 	51898.2
3.895 	288.48 	166.068 	51725.7
3.905 	288.225 	166.882 	51553.1
3.915 	287.969 	167.696 	51380.6
3.925 	287.714 	168.511 	51208
3.935 	287.459 	169.325 	51035.5
3.945 	287.204 	170.14 	50863
3.955 	286.949 	170.954 	50690.4
3.965 	286.693 	171.768 	50517.9
3.975 	286.438 	172.583 	50345.4
3.985 	286.183 	173.397 	50172.8
3.995 	285.928 	174.211 	50000.3
4.005 	285.673 	175.026 	49827.7
4.015 	285.418 	175.84 	49655.2
4.025 	285.162 	176.655 	49482.7
4.035 	284.907 	177.469 	49310.1
4.045 	284.652 	178.283 	49137.6
4.055 	284.397 	179.098 	48965.1
4.065 	284.142 	179.912 	48792.5
4.075 	283.886 	180.727 	48620
4.085 	283.631 	181.541 	48447.4
4.095 	283.376 	182.355 	48274.9
4.105 	283.121 	183.17 	48102.4
4.115 	282.866 	183.984 	47929.8
4.125 	282.611 	184.798 	47757.3
4.135 	282.453 	185.536 	47613.2
4.145 	282.295 	186.273 	47469.2
4.155 	282.138 	187.011 	47325.1
4.165 	281.98 	187.748 	47181.1
4.175 	281.823 	188.485 	47037
4.185 	281.665 	189.223 	46893
4.195 	281.507 	189.96 	46748.9
4.205 	281.35 	190.698 	46604.9
4.215 	281.192 	191.435 	46460.8
4.225 	281.035 	192.172 	46316.8
4.235 	280.877 	192.91 	46172.7
4.245 	280.719 	193.647 	46028.6
4.255 	280.562 	194.385 	45884.6
4.265 	280.404 	195.122 	45740.5
4.275 	280.247 	195.859 	45596.5
4.285 	280.089 	196.597 	45452.4
4.295 	279.931 	197.334 	45308.4
4.305 	279.774 	198.072 	45164.3
4.315 	279.616 	198.809 	45020.3
4.325 	279.459 	199.546 	44876.2
4.335 	279.301 	200.284 	44732.2
4.345 	279.143 	201.021 	44588.1
4.355 	278.986 	201.759 	44444
4.365 	278.828 	202.496 	44300
4.375 	278.671 	203.233 	44155.9
4.385 	278.513 	203.971 	44011.9
4.395 	278.355 	204.708 	43867.8
4.405 	278.198 	205.446 	43723.8
4.415 	278.04 	206.183 	43579.7
4.425 	277.883 	206.92 	43435.7
4.435 	277.725 	207.658 	43291.6
4.445 	277.567 	208.395 	43147.6
4.455 	277.41 	209.133 	43003.5
4.465 	277.252 	209.87 	42859.4
4.475 	277.095 	210.607 	42715.4
4.485 	276.937 	211.345 	42571.3
4.495 	276.779 	212.082 	42427.3
4.505 	276.536 	212.776 	42296.8
4.515 	276.208 	213.425 	42179.8
4.525 	275.879 	214.075 	42062.9
4.535 	275.551 	214.725 	41945.9
4.545 	275.223 	215.374 	41829
4.555 	274.894 	216.024 	41712
4.565 	274.566 	216.673 	41595.1
4.575 	274.237 	217.323 	41478.1
4.585 	273.909 	217.972 	41361.1
4.595 	273.58 	218.622 	41244.2
4.605 	273.252 	219.272 	41127.2
4.615 	272.923 	219.921 	41010.3
4.625 	272.595 	220.571 	40893.3
4.635 	272.267 	221.22 	40776.4
4.645 	271.938 	221.87 	40659.4
4.655 	271.61 	222.52 	40542.5
4.665 	271.281 	223.169 	40425.5
4.675 	270.953 	223.819 	40308.6
4.685 	270.624 	224.468 	40191.6
4.695 	270.296 	225.118 	40074.7
4.705 	269.967 	225.768 	39957.7
4.715 	269.639 	226.417 	39840.8
4.725 	269.311 	227.067 	39723.8
4.735 	268.982 	227.716 	39606.8
4.745 	268.654 	228.366 	39489.9
4.755 	268.325 	229.015 	39372.9
4.765 	267.997 	229.665 	39256
4.775 	267.668 	230.315 	39139
4.785 	267.34 	230.964 	39022.1
4.795 	267.012 	231.614 	38905.1
4.805 	266.683 	232.263 	38788.2
4.815 	266.355 	232.913 	38671.2
4.825 	266.026 	233.563 	38554.3
4.835 	265.698 	234.212 	38437.3
4.845 	265.369 	234.862 	38320.4
4.855 	265.041 	235.511 	38203.4
4.865 	264.712 	236.161 	38086.5
4.875 	264.384 	236.81 	37969.5
4.885 	264.116 	237.4 	37886.9
4.895 	263.848 	237.989 	37804.3
4.905 	263.58 	238.579 	37721.7
4.915 	263.312 	239.168 	37639.1
4.925 	263.044 	239.758 	37556.5
4.935 	262.775 	240.347 	37473.9
4.945 	262.507 	240.937 	37391.3
4.955 	262.239 	241.526 	37308.8
4.965 	261.971 	242.116 	37226.2
4.975 	261.703 	242.705 	37143.6
4.985 	261.435 	243.295 	37061
4.995 	261.167 	243.884 	36978.4
