/*--------------------------------*- C++ -*----------------------------------*\
| =========                 |                                                 |
| \\      /  F ield         | OpenFOAM: The Open Source CFD Toolbox           |
|  \\    /   O peration     | Version:  5.x                                   |
|   \\  /    A nd           | Web:      www.OpenFOAM.org                      |
|    \\/     M anipulation  |                                                 |
\*---------------------------------------------------------------------------*/
/*   Windows 32 and 64 bit porting by blueCAPE: http://www.bluecape.com.pt   *\
|  Based on Windows porting (2.0.x v4) by Symscape: http://www.symscape.com   |
\*---------------------------------------------------------------------------*/
FoamFile
{
    version     2.0;
    format      ascii;
    class       volScalarField;
    location    "0.0085";
    object      mag(U);
}
// * * * * * * * * * * * * * * * * * * * * * * * * * * * * * * * * * * * * * //

dimensions      [0 1 -1 0 0 0 0];

internalField   nonuniform List<scalar> 
100
(
0.655972
2.4118
6.13428
13.9331
27.2999
46.395
70.3148
97.7613
127.511
158.075
189.079
219.011
248.022
275.515
298.77
316.783
323.289
317.635
304.466
289.506
0.47908
1.74573
4.47481
10.3638
20.9388
36.6137
56.5983
79.7843
105.123
131.114
157.683
183.347
208.687
232.537
254.17
273.431
289.306
304.542
316.32
333.206
334.354
338.947
345.187
347.914
348.179
347.026
345.438
343.765
341.859
340.126
338.63
337.368
336.264
335.361
334.601
333.836
332.959
331.925
330.62
328.949
235.755
237.43
240.013
241.898
242.797
243.12
243.154
243.312
243.64
243.998
244.233
244.086
242.944
239.602
231.893
216.411
189.123
148.076
99.0082
42.3485
322.576
319.544
317.254
314.765
311.998
309.272
306.74
304.48
302.827
301.528
300.107
298.431
296.299
293.516
290.013
285.66
279.863
271.305
259.476
197.214
)
;

boundaryField
{
    inlet
    {
        type            calculated;
        value           nonuniform List<scalar> 2(0.47908 0.655972);
    }
    outlet
    {
        type            calculated;
        value           nonuniform List<scalar> 2(197.214 42.3485);
    }
    bottom
    {
        type            symmetryPlane;
    }
    top
    {
        type            symmetryPlane;
    }
    obstacle
    {
        type            calculated;
        value           nonuniform List<scalar> 
22
(
289.506
235.755
334.354
338.947
345.187
347.914
348.179
347.026
345.438
343.765
341.859
340.126
338.63
337.368
336.264
335.361
334.601
333.836
332.959
331.925
330.62
328.949
)
;
    }
    defaultFaces
    {
        type            empty;
    }
}


// ************************************************************************* //
