/*--------------------------------*- C++ -*----------------------------------*\
| =========                 |                                                 |
| \\      /  F ield         | OpenFOAM: The Open Source CFD Toolbox           |
|  \\    /   O peration     | Version:  5.x                                   |
|   \\  /    A nd           | Web:      www.OpenFOAM.org                      |
|    \\/     M anipulation  |                                                 |
\*---------------------------------------------------------------------------*/
/*   Windows 32 and 64 bit porting by blueCAPE: http://www.bluecape.com.pt   *\
|  Based on Windows porting (2.0.x v4) by Symscape: http://www.symscape.com   |
\*---------------------------------------------------------------------------*/
FoamFile
{
    version     2.0;
    format      ascii;
    class       volScalarField;
    location    "0.0085";
    object      p;
}
// * * * * * * * * * * * * * * * * * * * * * * * * * * * * * * * * * * * * * //

dimensions      [1 -1 -2 0 0 0 0];

internalField   nonuniform List<scalar> 
100
(
99745.7
99159.3
97810.7
94996.1
90182.3
83700
76173.6
68208.6
60332.5
52797.8
45853
39584.4
33948.5
28969.1
24618
21356.5
18846.8
18943.9
19690.4
21293.8
99813
99384.8
98389
96251.6
92383.5
86869.3
80355.2
73404.4
66558
60097.9
54321.8
49229.3
44725.3
40792.3
37670.3
35115.5
33030.1
31924.6
30245.3
29525.7
26951.5
26569.8
26034.1
25650.2
25510
25488.8
25549.4
25579.5
25640
25692.5
25723.7
25728
25720
25701.6
25666.5
25630.7
25608.5
25610.7
25632
25701.1
32246.1
32087.3
31774.3
31436.5
31209.3
30960.1
30705.6
30442.7
30154.7
29828.1
29458.9
29014.9
28431.7
27587.4
26281.3
24272.5
21431.3
18017.5
14762
12250.5
26000.2
26131.6
26183.5
26274.3
26415.7
26592.5
26755.1
26886.6
27049.3
27157.7
27253.5
27337.3
27394.4
27417.4
27412.7
27365.3
27200.4
26718.5
25349.5
21815.7
)
;

boundaryField
{
    inlet
    {
        type            zeroGradient;
    }
    outlet
    {
        type            zeroGradient;
    }
    bottom
    {
        type            symmetryPlane;
    }
    top
    {
        type            symmetryPlane;
    }
    obstacle
    {
        type            zeroGradient;
    }
    defaultFaces
    {
        type            empty;
    }
}


// ************************************************************************* //
