/*--------------------------------*- C++ -*----------------------------------*\
| =========                 |                                                 |
| \\      /  F ield         | OpenFOAM: The Open Source CFD Toolbox           |
|  \\    /   O peration     | Version:  5.x                                   |
|   \\  /    A nd           | Web:      www.OpenFOAM.org                      |
|    \\/     M anipulation  |                                                 |
\*---------------------------------------------------------------------------*/
/*   Windows 32 and 64 bit porting by blueCAPE: http://www.bluecape.com.pt   *\
|  Based on Windows porting (2.0.x v4) by Symscape: http://www.symscape.com   |
\*---------------------------------------------------------------------------*/
FoamFile
{
    version     2.0;
    format      ascii;
    class       surfaceScalarField;
    location    "0.0085";
    object      phi;
}
// * * * * * * * * * * * * * * * * * * * * * * * * * * * * * * * * * * * * * //

dimensions      [1 0 -1 0 0 0 0];

internalField   nonuniform List<scalar> 
137
(
2.0987
0.00926581
5.50502
0.0386657
12.8007
0.114211
25.8692
0.302291
44.1239
0.679299
63.9464
1.3209
82.3956
2.23032
97.2052
3.3499
107.553
4.59845
112.393
5.87898
113.175
6.9552
111.075
8.14061
103.991
8.88915
94.0508
9.31578
84.2148
9.95983
74.2557
9.98138
63.5643
8.52591
53.8377
6.78155
44.9944
3.29454
-1.28016
2.64439
7.36366
18.3235
40.1688
75.9328
121.013
170.155
218.76
263.795
301.979
335.896
366.051
385.793
400.932
425.771
442.153
448.619
451.181
416.688
385.093
378.03
370.957
364.239
357.636
351.484
345.361
339.173
332.997
326.86
320.836
314.921
309.151
303.496
297.992
292.606
287.36
282.195
277.133
272.151
267.184
47.3426
-5.41254
50.0282
-5.17357
52.683
-4.9693
55.7832
-4.83778
59.3377
-4.75954
62.7031
-4.70999
65.7693
-4.67834
68.5741
-4.69697
71.0895
-4.73931
73.2728
-4.80132
75.0247
-4.89268
76.1047
-4.98518
76.043
-5.07089
74.0098
-5.16104
68.7568
-5.25102
59.0653
-5.28995
44.9779
-5.16219
29.0831
-4.66122
15.3401
-3.60369
-2.05476
256.493
245.733
234.718
224.331
215.993
210.415
206.703
204.214
202.613
200.909
198.83
196.222
193.022
189.286
184.867
179.519
172.289
161.156
141.422
)
;

boundaryField
{
    inlet
    {
        type            calculated;
        value           nonuniform List<scalar> 2(-1.04551 -0.862005);
    }
    outlet
    {
        type            calculated;
        value           nonuniform List<scalar> 2(100.943 6.54229);
    }
    bottom
    {
        type            symmetryPlane;
        value           uniform 0;
    }
    top
    {
        type            symmetryPlane;
        value           uniform 0;
    }
    obstacle
    {
        type            calculated;
        value           nonuniform List<scalar> 
22
(
37.9614
-44.4144
4.56599
4.53647
4.46666
4.42324
4.37965
4.34061
4.29966
4.24999
4.20566
4.15598
4.11056
4.05946
4.01476
3.96585
3.92212
3.8745
3.83406
3.78953
3.75111
3.71086
)
;
    }
    defaultFaces
    {
        type            empty;
        value           nonuniform 0();
    }
}


// ************************************************************************* //
