/*--------------------------------*- C++ -*----------------------------------*\
| =========                 |                                                 |
| \\      /  F ield         | OpenFOAM: The Open Source CFD Toolbox           |
|  \\    /   O peration     | Version:  5.x                                   |
|   \\  /    A nd           | Web:      www.OpenFOAM.org                      |
|    \\/     M anipulation  |                                                 |
\*---------------------------------------------------------------------------*/
/*   Windows 32 and 64 bit porting by blueCAPE: http://www.bluecape.com.pt   *\
|  Based on Windows porting (2.0.x v4) by Symscape: http://www.symscape.com   |
\*---------------------------------------------------------------------------*/
FoamFile
{
    version     2.0;
    format      ascii;
    class       volScalarField;
    location    "0.0085";
    object      T;
}
// * * * * * * * * * * * * * * * * * * * * * * * * * * * * * * * * * * * * * //

dimensions      [0 0 0 1 0 0 0];

internalField   nonuniform List<scalar> 
100
(
348.178
347.592
346.234
343.377
338.362
331.309
322.631
312.744
302.597
290.214
283.098
268.622
257.557
252.879
246.302
235.808
230.982
233.719
240.656
272.939
348.245
347.818
346.817
344.657
340.668
334.771
327.444
319.099
310.471
300.532
294.75
281.687
275.359
272.02
262.885
250.63
246.044
246.329
256.818
280.193
284.992
285.333
287.931
288.823
290.788
292.6
294.935
297.392
299.741
302.427
304.712
307.317
309.475
312.002
314.075
316.544
318.595
321.204
323.397
326.131
439.564
438.985
438.607
436.574
430.634
422.858
416.449
411.491
407.349
403.733
400.523
397.509
394.308
390.185
383.96
374.139
359.238
339.262
317.168
297.216
333.096
342.281
352.884
364.904
376.136
383.622
386.415
386.221
384.97
382.402
380.321
379.013
378.386
378.236
378.436
379.03
379.159
377.934
373.165
353.406
)
;

boundaryField
{
    inlet
    {
        type            zeroGradient;
    }
    outlet
    {
        type            zeroGradient;
    }
    bottom
    {
        type            symmetryPlane;
    }
    top
    {
        type            symmetryPlane;
    }
    obstacle
    {
        type            zeroGradient;
    }
    defaultFaces
    {
        type            empty;
    }
}


// ************************************************************************* //
