/*--------------------------------*- C++ -*----------------------------------*\
| =========                 |                                                 |
| \\      /  F ield         | OpenFOAM: The Open Source CFD Toolbox           |
|  \\    /   O peration     | Version:  5.x                                   |
|   \\  /    A nd           | Web:      www.OpenFOAM.org                      |
|    \\/     M anipulation  |                                                 |
\*---------------------------------------------------------------------------*/
/*   Windows 32 and 64 bit porting by blueCAPE: http://www.bluecape.com.pt   *\
|  Based on Windows porting (2.0.x v4) by Symscape: http://www.symscape.com   |
\*---------------------------------------------------------------------------*/
FoamFile
{
    version     2.0;
    format      ascii;
    class       volVectorField;
    location    "0.0085";
    object      U;
}
// * * * * * * * * * * * * * * * * * * * * * * * * * * * * * * * * * * * * * //

dimensions      [0 1 -1 0 0 0 0];

internalField   nonuniform List<vector> 
100
(
(0.655843 -0.0129904 0)
(2.41173 -0.0185463 1.63909e-017)
(6.13419 0.0330782 -8.61047e-018)
(13.9305 0.264633 0)
(27.2853 0.8936 0)
(46.342 2.21782 9.14082e-018)
(70.1729 4.46474 4.38067e-017)
(97.456 7.72084 -4.2575e-018)
(126.947 11.9784 -2.97631e-017)
(157.155 17.0283 9.51867e-018)
(187.725 22.5853 -6.96746e-017)
(217.149 28.4939 7.03465e-017)
(245.655 34.1833 0)
(272.721 39.1392 6.10831e-017)
(295.771 42.2219 -9.76601e-017)
(313.777 43.5337 7.65306e-017)
(321.068 37.834 -1.03306e-016)
(316.614 25.4438 0)
(304.373 7.52478 -1.26496e-016)
(289.249 -12.2037 1.12497e-016)
(0.4782 -0.0290319 -9.31004e-018)
(1.74149 -0.12163 9.14879e-018)
(4.45794 -0.388249 -2.20809e-017)
(10.3087 -1.0679 5.15364e-017)
(20.7898 -2.49294 -3.42282e-017)
(36.2824 -4.91397 -3.48964e-017)
(55.9593 -8.48105 2.82765e-017)
(78.6737 -13.2658 0)
(103.348 -19.2367 4.95877e-017)
(128.461 -26.243 -5.82783e-017)
(153.9 -34.3297 -4.78919e-017)
(178.261 -42.887 9.66803e-017)
(202.011 -52.3607 -4.7155e-017)
(224.047 -62.2624 8.55247e-017)
(243.813 -71.815 -8.36146e-017)
(261.26 -80.6734 -7.4506e-017)
(274.903 -90.1456 7.78299e-017)
(287.613 -100.122 -7.09324e-017)
(296.26 -110.851 2.26387e-016)
(309.418 -123.64 -1.60689e-016)
(310.644 -123.664 0)
(315.37 -124.205 5.60739e-016)
(321.768 -124.977 -1.14476e-015)
(324.598 -125.22 5.81124e-016)
(324.935 -125.083 0)
(323.841 -124.718 0)
(322.311 -124.269 6.06593e-016)
(320.704 -123.787 -1.23594e-015)
(318.868 -123.249 6.27997e-016)
(317.217 -122.716 0)
(315.815 -122.195 0)
(314.657 -121.686 6.63539e-016)
(313.671 -121.176 -1.35081e-015)
(312.899 -120.67 6.86551e-016)
(312.281 -120.159 0)
(311.67 -119.616 0)
(310.958 -119.023 7.20369e-016)
(310.101 -118.371 -1.46772e-015)
(308.984 -117.637 7.45585e-016)
(307.513 -116.804 0)
(218.86 -87.6393 3.91593e-016)
(221.529 -85.4255 -6.59052e-016)
(225.71 -81.617 3.22203e-016)
(229.244 -77.2135 3.09221e-016)
(231.699 -72.5692 -2.99201e-016)
(233.46 -67.8499 2.84471e-016)
(234.786 -63.2389 -2.75897e-016)
(236.1 -58.8018 -2.64083e-016)
(237.44 -54.6137 5.13682e-016)
(238.667 -50.7232 -2.50643e-016)
(239.634 -47.1727 2.40504e-016)
(240.082 -44.0278 -4.71436e-016)
(239.392 -41.3926 3.45962e-016)
(236.346 -39.3654 -4.3785e-018)
(228.765 -37.9625 -1.12541e-016)
(213.234 -36.9466 1.00884e-016)
(185.741 -35.6076 -1.58953e-016)
(144.432 -32.6483 9.29432e-018)
(95.3522 -26.6568 5.33927e-017)
(38.8208 -16.9215 0)
(303.333 -109.747 -3.24482e-016)
(302.333 -103.456 6.71981e-016)
(301.801 -97.8071 -7.00668e-016)
(300.707 -93.0175 3.65019e-016)
(298.901 -89.4472 0)
(296.643 -87.4775 0)
(294.091 -87.1766 1.99714e-016)
(291.401 -88.2791 -6.04324e-016)
(289.068 -90.2447 4.04034e-016)
(287.059 -92.2842 0)
(285.124 -93.6397 0)
(283.326 -93.7415 0)
(281.578 -92.2329 -1.04063e-016)
(279.707 -88.9718 2.10244e-016)
(277.594 -83.9568 -1.06449e-016)
(275.038 -77.1715 1.07616e-016)
(271.358 -68.4679 -5.55839e-017)
(265.123 -57.5895 -1.10254e-016)
(255.641 -44.4459 5.78387e-017)
(195.01 -29.4057 0)
)
;

boundaryField
{
    inlet
    {
        type            zeroGradient;
    }
    outlet
    {
        type            zeroGradient;
    }
    bottom
    {
        type            symmetryPlane;
    }
    top
    {
        type            symmetryPlane;
    }
    obstacle
    {
        type            zeroGradient;
    }
    defaultFaces
    {
        type            empty;
    }
}


// ************************************************************************* //
