/*--------------------------------*- C++ -*----------------------------------*\
| =========                 |                                                 |
| \\      /  F ield         | OpenFOAM: The Open Source CFD Toolbox           |
|  \\    /   O peration     | Version:  5.x                                   |
|   \\  /    A nd           | Web:      www.OpenFOAM.org                      |
|    \\/     M anipulation  |                                                 |
\*---------------------------------------------------------------------------*/
/*   Windows 32 and 64 bit porting by blueCAPE: http://www.bluecape.com.pt   *\
|  Based on Windows porting (2.0.x v4) by Symscape: http://www.symscape.com   |
\*---------------------------------------------------------------------------*/
FoamFile
{
    version     2.0;
    format      ascii;
    class       volScalarField;
    location    "0.005";
    object      mag(U);
}
// * * * * * * * * * * * * * * * * * * * * * * * * * * * * * * * * * * * * * //

dimensions      [0 1 -1 0 0 0 0];

internalField   nonuniform List<scalar> 
100
(
7.68492
37.1793
121.507
231.931
306.437
303.692
7.68488
37.1801
121.497
231.983
306.393
302.598
7.68485
37.1809
121.487
232.044
306.32
302.694
7.68482
37.1816
121.479
232.099
306.26
306.942
7.6848
37.1821
121.472
232.142
306.195
315.462
7.68475
37.1832
121.459
232.218
305.833
329.282
7.68463
37.1861
121.421
232.319
305.329
326.155
7.68439
37.1918
121.345
232.336
304.427
322.079
7.6842
37.1969
121.269
232.289
303.783
319.447
7.68414
37.1986
121.241
232.257
303.53
318.385
325.943
317.179
319.52
303.185
313.642
294.773
310.094
290.449
308.807
289.289
64.0954
51.3297
6.03996
131.385
77.5916
8.43788
217.271
100.18
10.708
291.961
132.933
12.4844
312.7
160.693
14.189
312.919
167.232
15.3916
289.581
172.663
17.5021
278.011
174.136
19.9088
273.715
176.021
21.3974
273.043
177.144
21.9175
)
;

boundaryField
{
    inlet
    {
        type            calculated;
        value           nonuniform List<scalar> 10(7.68475 7.68463 7.68439 7.6842 7.68414 7.68492 7.68488 7.68485 7.68482 7.6848);
    }
    outlet
    {
        type            calculated;
        value           nonuniform List<scalar> 10(15.3916 17.5021 19.9088 21.3974 21.9175 6.03996 8.43788 10.708 12.4844 14.189);
    }
    bottom
    {
        type            symmetryPlane;
    }
    top
    {
        type            symmetryPlane;
    }
    obstacle
    {
        type            calculated;
        value           nonuniform List<scalar> 
12
(
303.692
302.598
302.694
306.942
315.462
64.0954
131.385
217.271
291.961
312.7
325.943
317.179
)
;
    }
    defaultFaces
    {
        type            empty;
    }
}


// ************************************************************************* //
