/*--------------------------------*- C++ -*----------------------------------*\
| =========                 |                                                 |
| \\      /  F ield         | OpenFOAM: The Open Source CFD Toolbox           |
|  \\    /   O peration     | Version:  5.x                                   |
|   \\  /    A nd           | Web:      www.OpenFOAM.org                      |
|    \\/     M anipulation  |                                                 |
\*---------------------------------------------------------------------------*/
/*   Windows 32 and 64 bit porting by blueCAPE: http://www.bluecape.com.pt   *\
|  Based on Windows porting (2.0.x v4) by Symscape: http://www.symscape.com   |
\*---------------------------------------------------------------------------*/
FoamFile
{
    version     2.0;
    format      ascii;
    class       volScalarField;
    location    "0.005";
    object      p;
}
// * * * * * * * * * * * * * * * * * * * * * * * * * * * * * * * * * * * * * //

dimensions      [1 -1 -2 0 0 0 0];

internalField   nonuniform List<scalar> 
100
(
97330.2
83011.2
60680.9
40163.8
36838.3
31703.7
97330.2
83011.3
60680.2
40164.2
36827.9
31686.8
97330.2
83011.5
60679.5
40165.5
36811.1
31676.7
97330.2
83011.6
60678.9
40167.2
36792.5
31670.6
97330.2
83011.6
60678.5
40168.6
36777.3
31667.9
97330.1
83011.8
60677.5
40172.1
36742.2
31676.5
97330.1
83012.3
60674.7
40186.8
36714.1
31628.9
97329.9
83013.3
60665.7
40243.1
36773.9
31686.5
97329.8
83014.3
60650.2
40351.5
36932.3
31922.5
97329.7
83014.7
60643.4
40408.2
37025.5
32075.2
27654.1
26657.6
28071.6
27424.4
28684.6
28184.3
29240.2
28813.3
29537.3
29121.8
20956.5
14245.8
10271
20359.1
15090.5
10328.6
20151.6
15408.5
10392.4
20183
15483
10436.1
21512.5
15540.3
10460.4
24219.9
15694.3
10507.1
25908.8
17055.4
10601.2
27014.4
18445.3
10699.2
27762.5
19300.7
10764.1
28086.3
19617.2
10786.6
)
;

boundaryField
{
    inlet
    {
        type            zeroGradient;
    }
    outlet
    {
        type            zeroGradient;
    }
    bottom
    {
        type            symmetryPlane;
    }
    top
    {
        type            symmetryPlane;
    }
    obstacle
    {
        type            zeroGradient;
    }
    defaultFaces
    {
        type            empty;
    }
}


// ************************************************************************* //
