/*--------------------------------*- C++ -*----------------------------------*\
| =========                 |                                                 |
| \\      /  F ield         | OpenFOAM: The Open Source CFD Toolbox           |
|  \\    /   O peration     | Version:  5.x                                   |
|   \\  /    A nd           | Web:      www.OpenFOAM.org                      |
|    \\/     M anipulation  |                                                 |
\*---------------------------------------------------------------------------*/
/*   Windows 32 and 64 bit porting by blueCAPE: http://www.bluecape.com.pt   *\
|  Based on Windows porting (2.0.x v4) by Symscape: http://www.symscape.com   |
\*---------------------------------------------------------------------------*/
FoamFile
{
    version     2.0;
    format      ascii;
    class       surfaceScalarField;
    location    "0.005";
    object      phi;
}
// * * * * * * * * * * * * * * * * * * * * * * * * * * * * * * * * * * * * * //

dimensions      [1 0 -1 0 0 0 0];

internalField   nonuniform List<scalar> 
174
(
6.26283
0.00069639
16.3648
-0.00530723
24.1589
0.0610472
22.3016
-0.303948
18.5072
0.557974
-0.583683
4.18827
0.00110463
10.9433
-0.00840779
16.1582
0.0971152
14.9065
-0.49204
12.3207
0.944013
-1.073
2.80092
0.00133854
7.31786
-0.0101629
10.8074
0.117843
9.96127
-0.601867
8.21035
1.2255
-1.46334
1.87311
0.00147445
4.89355
-0.0111635
7.22831
0.129881
6.65715
-0.66678
5.53474
1.36066
-1.76021
1.25264
0.00155557
3.27241
-0.0117437
4.83427
0.137103
4.45111
-0.706913
3.76947
1.35623
-1.97078
5.31681
0.00180406
13.8886
-0.0135755
20.5256
0.157028
18.8746
-0.832735
16.4738
0.761832
-1.81459
12.9346
9.45535
0.00183107
24.6938
-0.0137222
36.5109
0.16415
33.4855
-0.899574
28.8799
0.0980094
-1.74756
22.823
16.8163
0.00103834
43.9009
-0.00829246
64.9308
0.107574
59.4001
-0.652497
50.884
-0.189986
-1.18927
40.5231
29.9071
0.000305087
78.057
-0.00265919
115.475
0.0356294
105.644
-0.231553
90.0569
-0.108066
-0.392595
72.3022
53.185
138.802
205.359
187.965
159.786
128.986
12.4023
-0.893209
-1.38542
12.4934
21.748
-0.79011
-1.20185
21.6432
38.6802
-0.469241
-0.636805
38.1584
69.1715
-0.149817
-0.195124
68.5262
123.57
122.615
2.27645
-5.24823
0.865175
-7.05719
-1.01895
2.61901
-7.27122
0.72514
-10.5248
-1.80574
3.15038
-8.16675
0.700975
-10.4962
-2.2362
2.97403
-8.66613
0.70239
-9.55415
-2.28706
2.48994
-9.07007
0.607059
-8.69707
-2.17988
8.43113
-5.3641
2.7545
-7.83072
-1.73103
18.7171
-2.70717
5.42533
-5.60409
-1.0856
35.9766
-1.14247
10.3776
-2.51811
-0.468244
65.7206
-0.319674
19.282
-0.626409
-0.119956
118.003
34.8778
)
;

boundaryField
{
    inlet
    {
        type            calculated;
        value           nonuniform List<scalar> 10(-1.21538 -2.16126 -3.8432 -6.8341 -12.1528 -1.43179 -0.957489 -0.640308 -0.428198 -0.286353);
    }
    outlet
    {
        type            calculated;
        value           nonuniform List<scalar> 10(0.301751 0.633908 1.30758 2.51529 4.58798 0.139975 0.122551 0.101715 0.0803984 0.0631942);
    }
    bottom
    {
        type            symmetryPlane;
        value           uniform 0;
    }
    top
    {
        type            symmetryPlane;
        value           uniform 0;
    }
    obstacle
    {
        type            calculated;
        value           nonuniform List<scalar> 
12
(
15.7328
10.4831
7.01816
4.75982
3.25938
-1.67078
-2.30454
-2.98558
-2.81183
-2.28972
0.837956
1.25656
)
;
    }
    defaultFaces
    {
        type            empty;
        value           nonuniform 0();
    }
}


// ************************************************************************* //
