/*--------------------------------*- C++ -*----------------------------------*\
| =========                 |                                                 |
| \\      /  F ield         | OpenFOAM: The Open Source CFD Toolbox           |
|  \\    /   O peration     | Version:  5.x                                   |
|   \\  /    A nd           | Web:      www.OpenFOAM.org                      |
|    \\/     M anipulation  |                                                 |
\*---------------------------------------------------------------------------*/
/*   Windows 32 and 64 bit porting by blueCAPE: http://www.bluecape.com.pt   *\
|  Based on Windows porting (2.0.x v4) by Symscape: http://www.symscape.com   |
\*---------------------------------------------------------------------------*/
FoamFile
{
    version     2.0;
    format      ascii;
    class       volScalarField;
    location    "0.005";
    object      T;
}
// * * * * * * * * * * * * * * * * * * * * * * * * * * * * * * * * * * * * * //

dimensions      [0 0 0 1 0 0 0];

internalField   nonuniform List<scalar> 
100
(
345.602
331.167
287.955
313.026
376.095
406.497
345.602
331.167
287.954
313.036
376.27
406.266
345.602
331.167
287.953
313.051
376.476
405.793
345.602
331.167
287.953
313.064
376.58
405.631
345.602
331.167
287.952
313.077
376.229
407.08
345.602
331.167
287.951
313.083
376.169
404.703
345.602
331.167
287.949
313.152
376.862
404.099
345.602
331.168
287.94
313.327
377.907
403.706
345.602
331.168
287.924
313.585
378.906
404.161
345.602
331.168
287.916
313.714
379.353
404.627
402.984
392.327
403.011
394.229
403.308
395.583
404.332
396.971
405.02
397.753
343.867
309.635
280.981
342.057
315.944
281.49
350.691
323.109
282.107
361.895
332.942
282.725
361.821
333.651
283.248
366.52
327.764
283.665
371.337
335.949
284.593
374.425
343.28
285.557
376.723
347.741
286.201
377.843
349.435
286.429
)
;

boundaryField
{
    inlet
    {
        type            zeroGradient;
    }
    outlet
    {
        type            zeroGradient;
    }
    bottom
    {
        type            symmetryPlane;
    }
    top
    {
        type            symmetryPlane;
    }
    obstacle
    {
        type            zeroGradient;
    }
    defaultFaces
    {
        type            empty;
    }
}


// ************************************************************************* //
