/*--------------------------------*- C++ -*----------------------------------*\
| =========                 |                                                 |
| \\      /  F ield         | OpenFOAM: The Open Source CFD Toolbox           |
|  \\    /   O peration     | Version:  5.x                                   |
|   \\  /    A nd           | Web:      www.OpenFOAM.org                      |
|    \\/     M anipulation  |                                                 |
\*---------------------------------------------------------------------------*/
/*   Windows 32 and 64 bit porting by blueCAPE: http://www.bluecape.com.pt   *\
|  Based on Windows porting (2.0.x v4) by Symscape: http://www.symscape.com   |
\*---------------------------------------------------------------------------*/
FoamFile
{
    version     2.0;
    format      ascii;
    class       volVectorField;
    location    "0.005";
    object      U;
}
// * * * * * * * * * * * * * * * * * * * * * * * * * * * * * * * * * * * * * //

dimensions      [0 1 -1 0 0 0 0];

internalField   nonuniform List<vector> 
100
(
(7.68492 7.50347e-005 0)
(37.1793 -0.000890334 0)
(121.507 0.0167377 0)
(231.93 -0.190584 0)
(306.436 0.58624 0)
(303.69 -1.1626 0)
(7.68488 0.000192331 0)
(37.1801 -0.0022754 0)
(121.497 0.0430137 0)
(231.982 -0.492089 0)
(306.389 1.61034 0)
(302.582 -3.10581 0)
(7.68485 0.000259054 0)
(37.1809 -0.00305436 0)
(121.487 0.0580529 0)
(232.043 -0.669964 0)
(306.311 2.39601 0)
(302.656 -4.80343 0)
(7.68482 0.000297773 0)
(37.1816 -0.00350067 0)
(121.479 0.0667289 0)
(232.097 -0.774154 0)
(306.246 2.87339 0)
(306.878 -6.2472 0)
(7.6848 0.000320682 0)
(37.1821 -0.00375822 0)
(121.472 0.0719765 0)
(232.14 -0.839953 0)
(306.18 3.07452 0)
(315.378 -7.28563 0)
(7.68475 0.000360546 0)
(37.1832 -0.00420897 0)
(121.459 0.080461 0)
(232.216 -0.953712 0)
(305.824 2.3628 0)
(329.198 -7.47432 0)
(7.68463 0.000407418 0)
(37.1861 -0.00474531 0)
(121.421 0.0921631 0)
(232.316 -1.12559 0)
(305.329 0.625361 0)
(326.082 -6.88966 0)
(7.68439 0.00029992 0)
(37.1918 -0.00361032 0)
(121.345 0.073493 0)
(232.334 -0.952252 0)
(304.426 -0.410888 0)
(322.033 -5.45481 0)
(7.6842 0.000103465 0)
(37.1969 -0.00135957 0)
(121.269 0.0295365 0)
(232.289 -0.422033 0)
(303.783 -0.356184 0)
(319.44 -2.06927 0)
(7.68414 1.50844e-005 0)
(37.1986 -0.000212402 0)
(121.241 0.004774 0)
(232.257 -0.0740187 0)
(303.53 -0.0819492 0)
(318.385 -0.378526 0)
(325.636 -14.1278 0)
(316.455 -21.4218 0)
(319.206 -14.174 0)
(302.352 -22.4587 0)
(313.506 -9.22503 0)
(294.51 -12.4606 0)
(310.078 -3.20768 0)
(290.42 -4.1472 0)
(308.807 -0.594312 0)
(289.288 -0.751919 0)
(41.7295 -48.6504 0)
(44.3186 -25.8958 0)
(5.91138 -1.23961 0)
(87.4981 -98.0108 0)
(53.1293 -56.5484 0)
(7.69337 -3.46553 0)
(175.161 -128.551 0)
(76.5038 -64.6774 0)
(9.47703 -4.98461 0)
(254.013 -143.941 0)
(116.499 -64.025 0)
(11.146 -5.62367 0)
(290.14 -116.62 0)
(150.899 -55.2435 0)
(13.0624 -5.54092 0)
(302.85 -78.7387 0)
(160.434 -47.1966 0)
(14.6326 -4.77365 0)
(286.784 -40.1513 0)
(169.431 -33.2523 0)
(17.2008 -3.23326 0)
(277.471 -17.3231 0)
(173.42 -15.773 0)
(19.8461 -1.57891 0)
(273.664 -5.27101 0)
(175.963 -4.50776 0)
(21.3926 -0.452705 0)
(273.042 -0.881753 0)
(177.142 -0.696341 0)
(21.9174 -0.0656479 0)
)
;

boundaryField
{
    inlet
    {
        type            zeroGradient;
    }
    outlet
    {
        type            zeroGradient;
    }
    bottom
    {
        type            symmetryPlane;
    }
    top
    {
        type            symmetryPlane;
    }
    obstacle
    {
        type            zeroGradient;
    }
    defaultFaces
    {
        type            empty;
    }
}


// ************************************************************************* //
