/*--------------------------------*- C++ -*----------------------------------*\
| =========                 |                                                 |
| \\      /  F ield         | OpenFOAM: The Open Source CFD Toolbox           |
|  \\    /   O peration     | Version:  5.x                                   |
|   \\  /    A nd           | Web:      www.OpenFOAM.org                      |
|    \\/     M anipulation  |                                                 |
\*---------------------------------------------------------------------------*/
/*   Windows 32 and 64 bit porting by blueCAPE: http://www.bluecape.com.pt   *\
|  Based on Windows porting (2.0.x v4) by Symscape: http://www.symscape.com   |
\*---------------------------------------------------------------------------*/
FoamFile
{
    version     2.0;
    format      ascii;
    class       volVectorField;
    location    "0.003";
    object      U;
}
// * * * * * * * * * * * * * * * * * * * * * * * * * * * * * * * * * * * * * //

dimensions      [0 1 -1 0 0 0 0];

internalField   nonuniform List<vector> 
1000
(
(-3.96035e-014 8.81674e-013 0)
(-4.6128e-013 8.28102e-013 0)
(-1.84154e-013 7.96168e-013 0)
(-2.57765e-013 7.53123e-013 -2.97086e-018)
(-6.46937e-014 7.77573e-013 2.97764e-018)
(-1.61165e-013 6.52673e-013 0)
(3.36667e-013 7.11633e-013 0)
(2.15571e-013 6.29517e-013 5.99635e-018)
(7.00717e-013 6.69285e-013 -6.01017e-018)
(-3.60003e-013 5.9023e-013 6.02405e-018)
(7.5784e-013 6.08057e-013 -6.03799e-018)
(1.51526e-013 6.02615e-013 0)
(4.43853e-013 5.1064e-013 0)
(3.14618e-013 5.39118e-013 0)
(5.80702e-013 5.22484e-013 0)
(2.43743e-013 4.43e-013 -1.22174e-017)
(9.78896e-013 4.88726e-013 1.22461e-017)
(8.49657e-013 4.79064e-013 0)
(6.29174e-013 4.68583e-013 0)
(3.15218e-013 4.0322e-013 0)
(2.56644e-013 3.88361e-013 -4.82896e-020)
(4.00896e-013 4.30603e-013 1.23915e-017)
(-1.01232e-013 3.27693e-013 -2.4842e-017)
(-2.69269e-014 3.79392e-013 1.24507e-017)
(4.57429e-013 3.52032e-013 1.24804e-017)
(3.44858e-013 3.56025e-013 -1.25104e-017)
(-2.03293e-013 3.37156e-013 2.50809e-017)
(3.51117e-014 3.01324e-013 -1.82927e-032)
(-5.96094e-013 3.75782e-013 -2.52021e-017)
(2.66558e-013 2.25962e-013 2.52631e-017)
(-6.27318e-013 2.89976e-013 -2.53244e-017)
(1.77084e-013 2.59537e-013 2.5386e-017)
(-9.24737e-013 1.91058e-013 -2.54479e-017)
(1.4463e-013 2.38871e-013 0)
(-5.97318e-013 1.39974e-013 -2.55727e-017)
(5.90537e-013 2.42196e-013 2.56355e-017)
(2.92712e-014 5.82055e-014 0)
(3.83102e-013 1.62892e-013 0)
(-4.01467e-014 4.17038e-014 0)
(-2.40052e-013 2.38899e-014 -2.589e-017)
(-4.5968e-013 1.30633e-014 2.59544e-017)
(-9.62407e-014 1.55513e-014 5.08185e-020)
(3.29069e-013 2.73512e-014 5.09456e-020)
(9.73212e-013 8.00656e-014 0)
(1.23378e-012 -1.12703e-014 0)
(1.32603e-012 1.16294e-013 5.13305e-020)
(1.3314e-012 -8.23298e-014 -5.14602e-020)
(7.32042e-013 7.4783e-015 5.15904e-020)
(1.43021e-012 -6.71978e-014 5.17214e-020)
(1.25742e-012 -5.56767e-016 -2.66006e-017)
(8.97164e-013 -7.87044e-014 2.66684e-017)
(4.30501e-013 -1.79636e-013 5.21182e-020)
(9.89885e-013 -3.14188e-014 -5.22519e-020)
(5.35844e-013 -2.25559e-013 5.23862e-020)
(8.12376e-013 -1.64107e-013 5.25212e-020)
(3.45424e-013 -2.33793e-013 -5.26569e-020)
(8.10208e-013 -2.95053e-013 -2.69774e-017)
(7.02659e-013 -2.58877e-013 2.71533e-017)
(5.82744e-013 -2.70948e-013 -5.30683e-020)
(-5.14531e-014 -3.21644e-013 5.32068e-020)
(4.92858e-013 -3.39097e-013 5.33461e-020)
(-3.71233e-013 -4.09478e-013 -5.34862e-020)
(2.23344e-013 -3.19577e-013 5.49676e-017)
(-1.14493e-013 -4.67063e-013 -1.10064e-016)
(-7.37614e-013 -3.86969e-013 5.51506e-017)
(-7.05762e-013 -3.87705e-013 -5.52969e-017)
(-9.57564e-013 -3.95719e-013 1.1105e-016)
(-7.34525e-013 -3.38134e-013 -5.57005e-017)
(-1.06516e-013 -2.89016e-013 5.44872e-020)
(-8.85431e-014 -2.44034e-013 5.46333e-020)
(2.73806e-013 -2.6763e-013 -5.61497e-017)
(-1.2625e-013 -2.76018e-013 5.6301e-017)
(5.60515e-014 -1.92789e-013 5.50763e-020)
(-3.39147e-013 -2.46383e-013 -5.52255e-020)
(1.67024e-013 -2.80647e-013 5.53756e-020)
(-9.43877e-014 -2.44148e-013 5.55265e-020)
(-5.96775e-013 -2.34652e-013 -5.56782e-020)
(4.28102e-013 -1.25591e-013 5.58307e-020)
(-6.23667e-015 -1.84245e-013 -5.72718e-017)
(2.86189e-013 -1.16638e-013 5.74295e-017)
(3.09741e-013 -1.50507e-013 5.62934e-020)
(-9.09275e-013 -2.46388e-013 -5.77477e-017)
(2.88479e-013 -9.45136e-014 5.79081e-017)
(-5.03083e-013 -1.67612e-013 0)
(-4.15368e-013 -1.26518e-013 0)
(-1.1209e-012 -2.24939e-013 5.85089e-017)
(-9.55889e-013 -9.09657e-014 -5.8616e-017)
(-1.15676e-012 -1.82444e-013 0)
(-8.78811e-013 -1.31966e-013 0)
(-1.08899e-012 -1.51865e-013 0)
(-9.85381e-013 -1.33648e-013 5.78927e-020)
(-8.68459e-013 -5.23647e-014 -5.93929e-017)
(-5.24205e-013 -3.09459e-014 5.96209e-017)
(-8.51825e-013 -2.28841e-014 5.97917e-017)
(-1.02347e-012 -1.23866e-013 -5.99635e-017)
(-9.78573e-013 -1.00577e-013 0)
(-1.04304e-012 -3.92086e-014 6.0369e-017)
(-1.04507e-012 -1.13844e-013 -6.04259e-017)
(-8.52896e-013 -3.02135e-014 -6.06608e-017)
(-8.20336e-013 3.66809e-014 1.21675e-016)
(2.22588e-013 9.72487e-014 -6.10155e-017)
(2.92963e-014 1.0748e-013 0)
(7.02644e-013 1.95641e-013 5.99359e-020)
(-3.96552e-014 1.40387e-013 6.01128e-020)
(7.86711e-013 1.03578e-013 6.17376e-017)
(9.16143e-013 2.82764e-013 1.80213e-032)
(1.36624e-012 1.94714e-013 -6.21051e-017)
(9.01242e-013 1.75374e-013 -6.22904e-017)
(8.42441e-013 1.87364e-013 6.2538e-017)
(8.62302e-013 1.23204e-013 6.11959e-020)
(5.91263e-013 2.73512e-014 0)
(5.39546e-013 2.08233e-014 0)
(7.75986e-014 -6.1996e-014 0)
(3.73522e-013 9.31104e-015 0)
(3.50604e-013 -1.2208e-013 0)
(1.34546e-012 1.39182e-013 6.23187e-020)
(1.53259e-012 9.22893e-014 -6.39476e-017)
(3.19214e-012 3.59184e-013 6.42071e-017)
(7.92783e-012 1.14335e-012 6.44681e-017)
(2.41729e-011 4.00327e-012 -7.46456e-030)
(7.45396e-011 1.27769e-011 -6.48053e-017)
(2.28357e-010 3.99508e-011 6.34836e-020)
(6.89089e-010 1.22597e-010 6.36819e-020)
(2.04682e-009 3.68571e-010 0)
(5.99314e-009 1.09126e-009 6.56204e-017)
(1.72624e-008 3.17717e-009 -1.31655e-016)
(4.89056e-008 9.09643e-009 6.59713e-017)
(1.36202e-007 2.55981e-008 6.63101e-017)
(3.72727e-007 7.07745e-008 -6.63915e-017)
(1.00177e-006 1.92164e-007 0)
(2.64307e-006 5.12126e-007 6.68824e-017)
(6.84193e-006 1.33895e-006 -6.70974e-017)
(1.73675e-005 3.43231e-006 -6.73139e-017)
(4.32039e-005 8.62153e-006 6.75977e-017)
(0.00010526 2.12069e-005 0)
(0.000250991 5.10463e-005 0)
(0.000585312 0.000120149 0)
(0.00133384 0.000276305 0)
(0.00296778 0.000620284 6.86417e-017)
(0.00644113 0.00135802 -6.88014e-017)
(0.0136222 0.00289655 0)
(0.0280413 0.00601189 -6.93197e-017)
(0.0561157 0.012127 6.96228e-017)
(0.109025 0.0237413 0)
(0.205352 0.0450427 0)
(0.37441 0.0826855 -7.01109e-017)
(0.659782 0.146629 1.4082e-016)
(1.12203 0.250789 -7.06696e-017)
(1.83898 0.41312 0)
(2.90173 0.65469 0)
(4.4054 0.997483 0)
(6.43532 1.46109 0)
(9.0519 2.05901 1.40961e-016)
(12.279 2.79597 -2.01317e-018)
(16.1001 3.66745 -1.42311e-016)
(20.4634 4.66116 0)
(25.2936 5.76021 0)
(30.5054 6.94655 0)
(36.0147 8.20345 0)
(41.746 9.51656 -1.36403e-016)
(47.6355 10.8741 1.38956e-016)
(53.6314 12.2665 -6.90018e-020)
(59.6938 13.6865 0)
(65.7942 15.1293 1.3302e-016)
(71.9147 16.5923 -2.67771e-016)
(78.0454 18.0743 1.3476e-016)
(84.1819 19.5757 6.74077e-020)
(90.3225 21.0971 0)
(96.4671 22.6392 -6.67104e-020)
(102.616 24.2029 -1.27831e-016)
(108.769 25.7886 1.30461e-016)
(114.927 27.3967 0)
(121.088 29.0271 6.52771e-020)
(127.251 30.6798 -6.49146e-020)
(133.415 32.3541 -6.45512e-020)
(139.577 34.0497 1.2276e-016)
(145.735 35.7654 -3.59115e-018)
(151.888 37.5008 -1.24656e-016)
(158.028 39.2539 6.30862e-020)
(164.162 41.0257 0)
(170.271 42.8114 1.1835e-016)
(176.376 44.6148 -3.47255e-018)
(182.444 46.4294 -1.20296e-016)
(188.5 48.2575 1.16052e-016)
(194.527 50.0972 -1.18684e-016)
(200.516 51.9447 -6.05735e-020)
(206.482 53.8018 -6.03008e-020)
(212.407 55.6645 0)
(218.285 57.5311 -5.95827e-020)
(224.126 59.4014 -5.9265e-020)
(229.918 61.2718 1.1052e-016)
(235.647 63.1385 -1.13084e-016)
(241.317 65.0015 -1.08883e-016)
(246.927 66.8583 3.42524e-018)
(252.461 68.7021 1.10751e-016)
(257.902 70.5278 0)
(263.249 72.3347 5.71771e-020)
(268.498 74.1184 -5.69032e-020)
(273.627 75.8683 -5.6676e-020)
(278.611 77.5745 0)
(283.431 79.23 -5.62692e-020)
(288.073 80.8281 -5.6027e-020)
(292.511 82.3546 -1.02571e-016)
(296.707 83.7923 1.04899e-016)
(300.62 85.1218 -5.56139e-020)
(304.208 86.3263 5.55274e-020)
(307.431 87.3871 -5.54932e-020)
(310.244 88.2842 0)
(312.605 88.9946 5.541e-020)
(314.461 89.4926 1.01396e-016)
(315.785 89.7663 -1.03071e-016)
(316.557 89.8065 -1.02174e-016)
(316.752 89.6046 1.0315e-016)
(316.463 89.2008 -5.62189e-020)
(315.82 88.652 5.64661e-020)
(314.86 87.9741 0)
(313.63 87.1904 -5.70392e-020)
(312.226 86.3463 5.7366e-020)
(310.705 85.4711 -5.76879e-020)
(309.081 84.5712 0)
(307.347 83.6443 5.8295e-020)
(305.499 82.6892 -1.08135e-016)
(303.501 81.6884 1.08526e-016)
(301.308 80.6208 5.92058e-020)
(298.92 79.4895 -5.95732e-020)
(296.364 78.3104 -5.99327e-020)
(293.712 77.1209 6.0254e-020)
(291.035 75.9547 -1.127e-016)
(288.373 74.8273 2.26385e-016)
(285.758 73.7527 -1.13763e-016)
(283.19 72.7256 0)
(280.715 71.762 -6.18699e-020)
(278.353 70.8608 6.21837e-020)
(276.127 70.0207 -6.24609e-020)
(274.066 69.2376 0)
(272.076 68.4356 -1.185e-016)
(270.451 67.752 1.19334e-016)
(269.201 67.1634 1.22636e-016)
(267.494 66.2384 -1.31038e-016)
(265.281 65.0788 1.42648e-016)
(263.128 64.1456 -2.61927e-020)
(261.013 63.573 -1.66843e-016)
(258.848 63.4276 0)
(256.669 63.7889 -9.7785e-020)
(254.472 64.6531 1.00746e-019)
(252.125 65.8926 -1.93996e-016)
(249.458 67.3338 3.93129e-016)
(246.526 68.9286 -1.98295e-016)
(243.387 70.6342 -1.05583e-019)
(240.108 72.4257 -2.00432e-016)
(236.797 74.3096 2.01412e-016)
(233.363 76.1841 -1.06797e-019)
(229.777 78.0003 -1.07134e-019)
(226.092 79.7694 1.07511e-019)
(222.319 81.4827 0)
(218.464 83.1321 -2.04564e-016)
(214.532 84.7128 6.63397e-019)
(210.529 86.2229 2.06572e-016)
(206.465 87.6632 2.06955e-016)
(202.347 89.0338 -2.08307e-016)
(198.18 90.3318 -2.08798e-016)
(193.963 91.5528 2.10112e-016)
(189.7 92.6939 0)
(185.396 93.7565 2.11222e-016)
(181.065 94.7469 -2.13101e-016)
(176.718 95.6705 2.13239e-016)
(172.359 96.5264 -2.14839e-016)
(167.986 97.3104 2.14894e-016)
(163.612 98.0305 -6.76194e-019)
(159.243 98.6877 -2.17852e-016)
(154.791 99.2084 0)
(149.981 99.3786 1.16206e-019)
(144.349 98.829 -1.16614e-019)
(136.914 96.7663 2.1485e-016)
(119.815 86.9887 -2.94096e-017)
(79.91 59.1155 -2.45446e-016)
(34.5625 26.0616 -1.11164e-019)
(11.199 8.65237 2.00979e-016)
(3.15748 2.4968 -2.08102e-016)
(0.832799 0.671992 -2.04809e-016)
(0.214712 0.176142 2.06533e-016)
(0.0549626 0.0457238 -1.01265e-019)
(0.0140302 0.0118169 0)
(0.00357509 0.00304539 2.10088e-016)
(0.000909531 0.00078309 -4.22734e-016)
(0.000231036 0.000200972 2.12557e-016)
(5.86001e-005 5.14879e-005 -2.14024e-016)
(1.48425e-005 1.31704e-005 2.153e-016)
(3.75445e-006 3.36422e-006 -2.16909e-016)
(9.48565e-007 8.58283e-007 2.18327e-016)
(2.39395e-007 2.18723e-007 0)
(6.03586e-008 5.56842e-008 2.21003e-016)
(1.52053e-008 1.4164e-008 -2.22476e-016)
(3.82778e-009 3.6003e-009 -1.09413e-019)
(9.63406e-010 9.14855e-010 0)
(2.42233e-010 2.32829e-010 -2.27017e-016)
(6.11801e-011 5.94694e-011 4.57254e-016)
(1.61738e-011 1.53276e-011 -2.3026e-016)
(4.43418e-012 3.7965e-012 1.13213e-019)
(1.40773e-012 1.70151e-012 -1.14004e-019)
(-2.96297e-012 8.69075e-013 0)
(-2.96385e-012 8.42316e-013 0)
(-1.74225e-012 7.91564e-013 0)
(-2.61953e-012 7.55517e-013 0)
(-2.44325e-012 7.91266e-013 0)
(-1.39019e-012 6.70226e-013 0)
(-2.81978e-012 7.12725e-013 0)
(-6.35885e-013 6.51274e-013 0)
(-3.07496e-012 6.7041e-013 0)
(-4.14859e-013 5.99639e-013 0)
(-2.88115e-012 6.08523e-013 0)
(-1.08912e-012 6.07576e-013 0)
(-1.55791e-012 5.12081e-013 0)
(-9.86651e-013 5.54102e-013 0)
(-7.48495e-013 5.2599e-013 0)
(-7.5698e-013 4.57736e-013 0)
(-1.45528e-012 4.84307e-013 0)
(-1.6327e-012 4.59935e-013 0)
(-1.05563e-012 4.61987e-013 0)
(-4.4712e-013 4.06526e-013 0)
(-9.87088e-014 3.98801e-013 2.73601e-020)
(-6.57206e-013 4.4156e-013 0)
(-4.96955e-013 3.40191e-013 0)
(-1.16587e-012 3.96816e-013 0)
(4.67615e-014 3.46327e-013 0)
(-1.64855e-012 3.66312e-013 0)
(-1.39923e-014 3.53451e-013 0)
(-1.77474e-012 3.09182e-013 0)
(-6.60601e-013 4.01536e-013 0)
(-1.84452e-012 2.37099e-013 0)
(-2.44074e-012 3.21189e-013 0)
(-1.77492e-012 2.56912e-013 0)
(-2.94362e-012 2.34599e-013 0)
(-1.69181e-012 2.44122e-013 0)
(-3.19926e-012 1.77737e-013 0)
(-1.37859e-012 2.24482e-013 0)
(-1.99848e-012 7.43963e-014 0)
(-6.62249e-013 1.42999e-013 0)
(-1.82806e-012 7.01886e-014 0)
(1.55968e-013 4.71632e-014 0)
(-1.4111e-012 3.53634e-014 0)
(1.15308e-012 2.48804e-014 -2.66341e-020)
(-7.3119e-013 1.59948e-014 -2.66005e-020)
(6.48113e-013 5.06338e-014 0)
(-1.01197e-012 -6.79491e-014 0)
(1.20191e-012 5.06488e-014 -2.65002e-020)
(4.09229e-013 -1.4323e-013 2.64669e-020)
(3.81468e-013 -3.07956e-014 -2.64338e-020)
(5.89628e-013 -1.22603e-013 -2.64007e-020)
(1.44958e-013 -9.89505e-014 2.63676e-020)
(4.70524e-013 -1.44918e-013 -2.63347e-020)
(-1.89782e-013 -1.5674e-013 -2.63018e-020)
(-4.15195e-013 -1.06055e-013 2.62691e-020)
(-6.67091e-013 -2.91712e-013 -2.62364e-020)
(-7.20283e-013 -1.83588e-013 -2.62038e-020)
(-3.95664e-013 -2.73705e-013 2.61712e-020)
(-2.15549e-013 -2.99608e-013 -2.61388e-020)
(-6.00996e-013 -3.35257e-013 -2.61064e-020)
(-2.6877e-014 -2.83188e-013 2.60741e-020)
(-2.23698e-013 -3.30374e-013 -2.60419e-020)
(9.83058e-014 -3.56917e-013 -2.60098e-020)
(1.33888e-013 -3.82e-013 2.59777e-020)
(8.64744e-013 -3.29572e-013 -2.59457e-020)
(8.54778e-013 -4.30032e-013 -2.59139e-020)
(3.37934e-013 -3.44326e-013 2.5882e-020)
(1.27014e-012 -3.25862e-013 -2.58503e-020)
(5.855e-013 -3.01621e-013 -2.58186e-020)
(1.75435e-012 -2.93638e-013 2.57871e-020)
(2.03539e-013 -2.6756e-013 -2.57556e-020)
(1.66168e-012 -2.23731e-013 -2.57241e-020)
(8.82797e-015 -2.80702e-013 2.56928e-020)
(1.13742e-012 -2.42336e-013 -2.56615e-020)
(-1.40904e-013 -2.16035e-013 -2.56303e-020)
(1.10827e-012 -2.51093e-013 2.55992e-020)
(3.68976e-013 -2.53945e-013 -2.55681e-020)
(1.07926e-012 -1.7974e-013 -2.55372e-020)
(1.03414e-012 -1.95133e-013 2.55063e-020)
(8.75329e-013 -1.99001e-013 -2.54754e-020)
(9.26729e-013 -1.80455e-013 -2.54447e-020)
(6.54914e-013 -1.41489e-013 2.5414e-020)
(1.91877e-012 -1.91877e-013 -2.53834e-020)
(3.6587e-013 -1.44415e-013 -2.53529e-020)
(1.70534e-012 -1.25209e-013 2.53224e-020)
(1.01676e-012 -1.23293e-013 0)
(1.60578e-012 -9.66991e-014 0)
(2.77423e-013 -6.96267e-014 -2.52315e-020)
(1.45473e-012 1.61005e-014 0)
(4.9298e-013 -6.93253e-014 0)
(1.49445e-012 1.74119e-014 0)
(5.00434e-013 1.092e-014 0)
(9.99677e-013 -7.1367e-015 -2.50814e-020)
(7.05828e-013 5.78327e-015 -2.50516e-020)
(4.29872e-013 4.66143e-014 0)
(6.8698e-013 7.98346e-014 0)
(9.94942e-013 3.01538e-014 0)
(3.85512e-013 4.56457e-014 0)
(1.15517e-012 1.13244e-013 -2.49036e-020)
(4.9571e-013 4.56716e-014 -2.48742e-020)
(8.53665e-014 8.80342e-014 0)
(9.89086e-013 1.07648e-013 0)
(6.7281e-013 1.20829e-013 0)
(1.26748e-012 9.23761e-014 0)
(4.16333e-013 8.68246e-014 -2.47284e-020)
(1.00142e-012 1.49444e-013 -2.46994e-020)
(-8.47671e-015 1.27151e-014 0)
(6.01143e-013 9.73682e-014 0)
(2.62164e-013 2.28601e-014 0)
(-4.22353e-014 6.38808e-014 0)
(-1.34995e-013 -4.6141e-015 -2.45555e-020)
(8.4274e-014 1.44846e-015 -2.4527e-020)
(-8.4176e-015 -2.43321e-014 0)
(4.45615e-013 -5.35999e-014 0)
(-6.38255e-013 -6.84969e-014 0)
(-1.76156e-013 -6.1602e-014 0)
(-5.6137e-013 -1.46496e-013 0)
(-4.51925e-013 -1.1625e-013 -2.43569e-020)
(-2.5078e-014 -1.82599e-013 -2.43288e-020)
(-9.85262e-013 -2.05872e-013 0)
(-6.58865e-013 -2.71052e-013 -2.42728e-020)
(-2.26589e-012 -4.44899e-013 0)
(-4.34351e-012 -8.75125e-013 0)
(-1.26831e-011 -2.44588e-012 -2.41892e-020)
(-3.87447e-011 -6.82281e-012 -2.41615e-020)
(-1.14194e-010 -2.02102e-011 0)
(-3.34039e-010 -5.97259e-011 0)
(-9.58323e-010 -1.74995e-010 0)
(-2.70843e-009 -5.05358e-010 2.40512e-020)
(-7.52387e-009 -1.43724e-009 -2.40238e-020)
(-2.05406e-008 -4.02028e-009 -2.39965e-020)
(-5.50725e-008 -1.10543e-008 0)
(-1.44929e-007 -2.98634e-008 0)
(-3.74131e-007 -7.92263e-008 0)
(-9.46787e-007 -2.06302e-007 0)
(-2.34712e-006 -5.27002e-007 -2.38607e-020)
(-5.69553e-006 -1.31995e-006 0)
(-1.35167e-005 -3.23956e-006 0)
(-3.13422e-005 -7.78611e-006 0)
(-7.09304e-005 -1.83135e-005 0)
(-0.000156473 -4.21237e-005 0)
(-0.000335985 -9.46775e-005 -2.36993e-020)
(-0.000701028 -0.000207763 0)
(-0.00141838 -0.000444732 0)
(-0.00277584 -0.000927708 -2.36163e-020)
(-0.00523764 -0.00188385 0)
(-0.00948778 -0.00371969 0)
(-0.0164022 -0.00713291 -2.35155e-020)
(-0.0268231 -0.0132669 0)
(-0.0408993 -0.0239029 0)
(-0.0565781 -0.041663 0)
(-0.066606 -0.0701688 0)
(-0.0547685 -0.114069 0)
(0.00356712 -0.178881 0)
(0.149466 -0.270711 0)
(0.455398 -0.395507 2.25292e-020)
(1.02236 -0.558152 0)
(1.96642 -0.761736 0)
(3.40552 -1.00708 0)
(5.43271 -1.2926 0)
(8.08502 -1.61479 0)
(11.334 -1.96908 0)
(15.1054 -2.35074 -2.04935e-020)
(19.3112 -2.75537 2.02094e-020)
(23.8676 -3.17908 0)
(28.7028 -3.61851 0)
(33.7599 -4.07077 0)
(38.9951 -4.53345 0)
(44.3748 -5.00449 -1.88785e-020)
(49.8738 -5.48217 0)
(55.4729 -5.96502 1.8376e-020)
(61.157 -6.45177 -1.81289e-020)
(66.914 -6.94132 1.78839e-020)
(72.7344 -7.43271 0)
(78.6098 -7.92505 -1.73996e-020)
(84.5332 -8.41758 1.71599e-020)
(90.4985 -8.90957 1.69218e-020)
(96.5 -9.40034 0)
(102.532 -9.88928 1.645e-020)
(108.591 -10.3758 1.62163e-020)
(114.671 -10.8593 -1.59842e-020)
(120.769 -11.3393 0)
(126.879 -11.8152 1.55246e-020)
(132.998 -12.2867 -1.52983e-020)
(139.121 -12.7531 1.50714e-020)
(145.247 -13.2143 0)
(151.364 -13.6692 -1.46231e-020)
(157.483 -14.1187 1.44158e-020)
(163.575 -14.5602 1.41772e-020)
(169.667 -14.9971 0)
(175.724 -15.4238 1.3747e-020)
(181.759 -15.8454 1.35548e-020)
(187.772 -16.2588 -1.33508e-020)
(193.732 -16.6624 0)
(199.654 -17.0595 1.29339e-020)
(205.53 -17.4486 -1.27432e-020)
(211.334 -17.8274 1.25294e-020)
(217.067 -18.198 0)
(222.724 -18.5611 -1.21557e-020)
(228.28 -18.9149 1.19703e-020)
(233.716 -19.2588 1.17725e-020)
(239.022 -19.5947 0)
(244.18 -19.9234 1.14269e-020)
(249.156 -20.2432 1.12641e-020)
(253.922 -20.5538 -1.10924e-020)
(258.452 -20.8562 0)
(262.716 -21.1526 1.07754e-020)
(266.675 -21.4429 -1.06438e-020)
(270.293 -21.7257 1.05177e-020)
(273.537 -21.9998 0)
(276.387 -22.2667 -1.02626e-020)
(278.827 -22.5287 1.01612e-020)
(280.856 -22.7855 1.00874e-020)
(282.476 -23.0342 0)
(283.737 -23.2715 9.96181e-021)
(284.693 -23.4961 9.90771e-021)
(285.39 -23.7095 -9.87032e-021)
(285.912 -23.9121 0)
(286.305 -24.1013 9.83199e-021)
(286.604 -24.2747 -9.82332e-021)
(286.836 -24.4255 9.81408e-021)
(287.032 -24.5506 0)
(287.239 -24.6475 -9.79417e-021)
(287.469 -24.7122 9.78937e-021)
(287.71 -24.7392 0)
(287.958 -24.7245 -9.79911e-021)
(288.219 -24.6657 9.81094e-021)
(288.501 -24.5626 9.82274e-021)
(288.83 -24.4179 -9.8368e-021)
(289.252 -24.2351 0)
(289.822 -24.0183 9.87012e-021)
(290.527 -23.7726 -9.89362e-021)
(291.199 -23.5051 0)
(291.726 -23.2291 9.9491e-021)
(292.162 -22.9603 -9.96738e-021)
(292.548 -22.7194 9.97982e-021)
(292.887 -22.5292 0)
(293.205 -22.4198 -9.99378e-021)
(293.52 -22.4386 1.00141e-020)
(293.799 -22.6069 1.00568e-020)
(294.166 -22.9481 0)
(294.46 -23.4803 1.04718e-020)
(294.534 -24.202 1.11106e-020)
(294.619 -25.0672 -1.18542e-020)
(294.786 -26.0106 0)
(295.038 -26.9576 1.33771e-020)
(295.345 -27.8356 -1.40317e-020)
(295.67 -28.5842 1.45579e-020)
(295.98 -29.1617 0)
(296.264 -29.5472 -1.52015e-020)
(296.515 -29.7407 1.53515e-020)
(296.739 -29.7543 1.54225e-020)
(296.95 -29.6103 0)
(297.162 -29.3333 1.54199e-020)
(297.372 -28.9452 1.53812e-020)
(297.57 -28.4658 -1.53353e-020)
(297.786 -27.9112 0)
(298.052 -27.2938 1.52203e-020)
(298.365 -26.6225 -1.51623e-020)
(298.709 -25.9028 1.51072e-020)
(299.063 -25.1385 0)
(299.41 -24.3313 -1.50047e-020)
(299.711 -23.4819 1.49604e-020)
(299.958 -22.5907 1.49169e-020)
(300.215 -21.6569 0)
(300.517 -20.6779 1.48216e-020)
(300.853 -19.6511 1.47697e-020)
(301.219 -18.5733 -1.47141e-020)
(301.602 -17.4416 0)
(301.965 -16.2532 1.46001e-020)
(302.232 -15.0054 -1.45495e-020)
(302.246 -13.6973 1.45121e-020)
(301.858 -12.3305 0)
(300.853 -10.905 -1.44249e-020)
(298.615 -9.41718 1.4357e-020)
(293.891 -7.86293 1.42724e-020)
(283.586 -6.22979 0)
(256.362 -4.36801 1.2407e-020)
(181.542 -2.10312 1.29089e-020)
(74.0614 -0.51924 -1.4727e-020)
(17.7866 -0.0755404 0)
(3.43751 -0.00973557 1.631e-020)
(0.597815 -0.00111885 -1.63579e-020)
(0.100846 -6.36782e-005 1.63497e-020)
(0.0169248 2.05533e-005 0)
(0.00284199 1.13438e-005 -1.63182e-020)
(0.000478193 3.89862e-006 1.63024e-020)
(8.07081e-005 1.15804e-006 1.62866e-020)
(1.36815e-005 3.21464e-007 0)
(2.33362e-006 8.59987e-008 1.62552e-020)
(4.015e-007 2.25064e-008 1.62395e-020)
(6.99106e-008 5.80947e-009 -1.62239e-020)
(1.23717e-008 1.48613e-009 0)
(2.23715e-009 3.77834e-010 1.61928e-020)
(4.15348e-010 9.55486e-011 -1.61772e-020)
(8.00206e-011 2.40759e-011 1.61617e-020)
(1.54507e-011 5.94103e-012 0)
(3.53335e-012 1.35591e-012 -1.61308e-020)
(4.15291e-013 2.0413e-013 1.61154e-020)
(3.59575e-013 -8.06018e-014 0)
(3.6614e-013 -2.04011e-013 -1.60847e-020)
(8.48912e-013 -2.37409e-013 1.60693e-020)
(3.33424e-013 -6.01411e-026 0)
(4.66794e-013 -1.15921e-038 0)
(2.00055e-013 -1.66804e-051 0)
(5.33479e-013 -1.84083e-064 0)
(1.3337e-013 -1.79095e-077 0)
(6.00164e-013 -1.3967e-090 0)
(6.66849e-014 -9.83712e-104 0)
(6.66849e-013 -6.09582e-117 0)
(-1.3337e-013 -3.38779e-130 0)
(5.33479e-013 -1.71026e-143 0)
(6.66849e-014 -8.13754e-157 0)
(6.00164e-013 -3.48572e-170 0)
(2.00055e-013 -1.33536e-183 0)
(5.33479e-013 -5.51482e-197 0)
(3.33424e-013 -2.07497e-210 0)
(6.00164e-013 -7.0994e-224 0)
(2.6674e-013 -2.2276e-237 0)
(5.33479e-013 -7.066e-251 0)
(2.00055e-013 -2.20099e-264 0)
(4.00109e-013 -6.36909e-278 0)
(2.6674e-013 -1.8773e-291 0)
(3.33424e-013 -5.19494e-305 0)
(3.33424e-013 -1.5319e-318 0)
(2.6674e-013 0 0)
(5.33479e-013 0 0)
(2.6674e-013 0 0)
(3.33424e-013 0 0)
(5.33479e-013 0 0)
(1.3337e-013 0 0)
(3.33424e-013 0 0)
(6.66849e-013 0 0)
(-1.3337e-013 0 0)
(8.00219e-013 0 0)
(-2.00055e-013 0 0)
(5.33479e-013 0 0)
(1.17595e-025 0 0)
(5.33479e-013 0 0)
(-6.66849e-014 0 0)
(5.33479e-013 0 0)
(2.00055e-013 0 0)
(3.33424e-013 0 0)
(4.66794e-013 0 0)
(3.33424e-013 0 0)
(7.33534e-013 0 0)
(2.6674e-013 0 0)
(8.66904e-013 0 0)
(4.00109e-013 0 0)
(8.00219e-013 0 0)
(4.66794e-013 0 0)
(7.33534e-013 0 0)
(9.33589e-013 0 0)
(7.33534e-013 0 0)
(9.33589e-013 0 0)
(5.33479e-013 0 0)
(8.66904e-013 0 0)
(1.00027e-012 0 0)
(1.00027e-012 0 0)
(1.06696e-012 0 0)
(1.00027e-012 0 0)
(1.40038e-012 0 0)
(6.66849e-013 0 0)
(1.40038e-012 0 0)
(5.33479e-013 0 0)
(1.3337e-012 0 0)
(7.33534e-013 0 0)
(1.26701e-012 0 0)
(9.33589e-013 0 0)
(1.13364e-012 0 0)
(1.13364e-012 0 0)
(8.00219e-013 0 0)
(1.46707e-012 0 0)
(6.00164e-013 0 0)
(1.3337e-012 0 0)
(1.3337e-012 0 0)
(7.33534e-013 0 0)
(1.40038e-012 0 0)
(9.33589e-013 0 0)
(1.3337e-012 0 0)
(1.06696e-012 0 0)
(1.53375e-012 0 0)
(8.66904e-013 0 0)
(1.73381e-012 0 0)
(8.00219e-013 0 0)
(1.80049e-012 0 0)
(1.00027e-012 0 0)
(1.66712e-012 0 0)
(8.00219e-013 0 0)
(2.06723e-012 0 0)
(1.40038e-012 0 0)
(1.73381e-012 0 0)
(1.13364e-012 0 0)
(1.86718e-012 0 0)
(1.20033e-012 0 0)
(1.86718e-012 0 0)
(9.33589e-013 0 0)
(1.80049e-012 0 0)
(1.46707e-012 -9.72381e-078 0)
(1.3337e-012 -3.73292e-062 0)
(1.3337e-012 -7.16525e-047 0)
(1.53375e-012 -2.7507e-031 0)
(8.28825e-013 5.96754e-013 1.54381e-019)
(3.8786e-013 9.11708e-013 -3.12619e-016)
(3.52527e-013 1.0672e-012 6.18442e-016)
(5.74701e-013 3.99248e-013 1.49291e-019)
(1.01725e-012 3.06215e-013 -3.02425e-016)
(5.13326e-013 1.39697e-013 1.46081e-019)
(7.23062e-013 9.55353e-013 -2.9599e-016)
(8.84236e-013 4.54414e-013 2.93018e-016)
(6.7832e-013 6.22525e-013 1.41516e-019)
(7.74716e-013 6.80961e-013 -2.86836e-016)
(6.04006e-013 2.42347e-013 5.67957e-016)
(2.89398e-013 4.88086e-013 -5.62083e-016)
(7.29138e-013 3.00863e-014 2.78367e-016)
(1.15205e-013 1.39916e-013 1.3451e-019)
(1.98095e-013 -2.86026e-014 2.72776e-016)
(5.97478e-014 -1.07989e-013 1.31898e-019)
(4.52786e-013 1.53412e-014 -2.6753e-016)
(2.3509e-013 -7.33708e-014 2.65111e-016)
(-2.21476e-014 -8.17096e-014 -2.62354e-016)
(-5.67687e-014 -3.22506e-013 0)
(3.27223e-013 -1.051e-013 1.25792e-019)
(2.1193e-013 -2.17472e-014 -2.55133e-016)
(4.64453e-013 1.5499e-013 2.52937e-016)
(2.87886e-013 -5.29776e-014 1.22392e-019)
(2.91217e-013 -1.75015e-013 -2.48421e-016)
(2.56266e-013 1.53296e-014 2.46342e-016)
(1.95237e-013 -1.47953e-014 -2.43943e-016)
(-4.23151e-013 -6.02123e-013 2.4194e-016)
(6.60202e-014 -2.89231e-013 1.17116e-019)
(-5.89298e-013 -5.0066e-013 0)
(3.48458e-013 -2.51106e-013 0)
(-3.47253e-013 -4.00692e-013 -2.33693e-016)
(7.4741e-014 -1.76643e-013 2.31859e-016)
(-6.24444e-013 -7.33133e-013 2.30055e-016)
(9.05169e-014 -1.67022e-013 -2.28058e-016)
(-2.79349e-013 -4.73643e-013 2.26315e-016)
(-1.30231e-013 -3.69462e-013 -2.2438e-016)
(-3.40158e-013 -2.66583e-013 0)
(1.37932e-013 -2.64468e-013 2.20818e-016)
(-2.68487e-013 -3.97706e-013 -2.18973e-016)
(-2.95148e-013 -3.38329e-013 -2.17368e-016)
(2.72982e-014 -2.92595e-013 2.15788e-016)
(2.51596e-014 -1.79186e-013 -2.14024e-016)
(2.02524e-013 -2.11572e-013 2.12494e-016)
(5.30103e-014 -1.14999e-013 0)
(-3.68625e-013 -3.09843e-013 0)
(9.47427e-014 -2.59224e-013 1.01384e-019)
(-6.10338e-013 -3.70086e-013 2.06097e-016)
(2.09324e-013 -2.00106e-013 -2.04482e-016)
(-2.67024e-013 -4.00619e-013 -2.03088e-016)
(-1.70532e-013 1.58558e-014 4.03233e-016)
(-2.50966e-013 -4.12564e-013 -2.00166e-016)
(8.22165e-015 -6.77268e-014 1.98736e-016)
(-5.19302e-013 -3.91517e-013 -1.97327e-016)
(-1.38923e-013 -4.30172e-014 1.96033e-016)
(-6.33493e-013 -4.35771e-013 -1.94567e-016)
(-3.81382e-013 -1.38339e-013 9.43438e-020)
(-3.26957e-013 -2.75713e-013 0)
(-3.36426e-014 -7.43104e-014 0)
(-6.27962e-015 -1.1784e-014 -1.89273e-016)
(2.8075e-013 -1.06571e-013 1.87994e-016)
(-3.06554e-013 -8.81113e-014 -1.86641e-016)
(6.83933e-013 2.1334e-013 1.85487e-016)
(3.5457e-013 -1.66341e-013 0)
(2.55368e-013 3.04102e-013 0)
(4.72241e-013 -1.81746e-014 0)
(5.31854e-013 6.86741e-014 -1.8067e-016)
(4.37473e-013 1.51755e-013 1.79592e-016)
(5.62804e-013 1.16593e-013 1.78353e-016)
(-1.06197e-013 -9.43646e-014 8.65319e-020)
(9.54985e-014 -2.90823e-013 -1.76096e-016)
(-6.28161e-013 1.68006e-013 8.54434e-020)
(-8.15266e-013 -2.78641e-013 0)
(-5.00944e-013 -2.88802e-013 -1.72814e-016)
(-8.81106e-013 -2.86456e-013 1.71748e-016)
(-5.23952e-013 -3.87056e-013 8.5347e-017)
(-6.74122e-013 1.0757e-013 -8.48265e-017)
(-8.06723e-014 -2.08311e-013 -8.43124e-017)
(-1.7273e-013 2.05134e-013 8.38045e-017)
(9.34227e-014 -1.14373e-013 0)
(3.70381e-014 1.16406e-013 -8.28069e-017)
(3.08915e-013 2.50045e-013 8.23169e-017)
(6.55223e-013 6.24788e-014 -8.18327e-017)
(5.21433e-013 1.30092e-013 8.13541e-017)
(2.71988e-013 -4.02848e-014 0)
(3.83194e-013 2.30035e-013 0)
(-6.995e-014 -2.96567e-013 0)
(3.68134e-013 1.94324e-013 0)
(-4.46271e-013 -2.28704e-013 0)
(4.23725e-013 -2.6012e-014 -7.85963e-017)
(-8.12406e-013 -2.25878e-013 7.81548e-017)
(1.2224e-014 -1.74192e-013 0)
(-3.43347e-013 -1.46126e-013 0)
(-7.12114e-014 -1.94682e-013 0)
(-5.64119e-013 -1.72824e-013 0)
(4.76405e-014 -2.12732e-013 0)
(-6.9623e-013 -1.94233e-013 0)
(-1.39836e-014 -8.23001e-014 7.51976e-017)
(-3.38337e-013 -1.99252e-013 1.36048e-032)
(9.81183e-014 -1.10673e-013 -7.43933e-017)
(2.08226e-013 -1.63428e-013 0)
(4.08399e-013 -1.60634e-013 0)
(-4.45657e-014 -6.40595e-014 0)
(4.67727e-013 -1.1098e-013 0)
(-2.86096e-013 -2.34575e-013 0)
(1.54234e-013 -1.60848e-013 -7.20806e-017)
(-2.97421e-013 -2.07954e-013 -2.60876e-032)
(-1.45289e-013 -2.30265e-013 -1.29769e-032)
(-9.07056e-014 -2.43044e-013 7.09773e-017)
(-1.15294e-013 -1.50871e-013 0)
(2.79326e-013 -1.64384e-013 0)
(-4.16911e-013 -2.52896e-013 0)
(-1.00402e-013 -2.02627e-013 0)
(-6.65807e-013 -2.79636e-013 0)
(-4.32328e-013 -1.13286e-013 0)
(-8.77799e-013 -3.09217e-013 0)
(-8.90758e-013 -1.66923e-013 -6.81939e-017)
(-1.43655e-012 -2.91524e-013 -6.17194e-032)
(-8.51517e-013 -2.09339e-013 -4.91359e-032)
(-1.6702e-012 -2.48848e-013 6.72056e-017)
(-5.90418e-013 -1.86944e-013 0)
(-2.02833e-012 -2.45376e-013 0)
(-1.33619e-012 -2.33571e-013 0)
(-2.41203e-012 -2.47587e-013 0)
(-1.59151e-012 -1.42777e-013 -3.28103e-017)
(-2.37852e-012 -1.84268e-013 3.26562e-017)
(-1.37251e-012 -8.90406e-014 3.25036e-017)
(-2.12497e-012 -1.34848e-013 -6.47049e-017)
(-1.60947e-012 -1.21772e-013 3.22027e-017)
(-2.36251e-012 -1.00624e-013 3.20543e-017)
(-1.77166e-012 -5.62498e-014 -3.19072e-017)
(-2.71556e-012 -4.76669e-014 0)
(-2.04171e-012 -1.59549e-014 0)
(-2.24343e-012 -4.12537e-016 0)
(-2.22917e-012 1.27311e-014 3.13323e-017)
(-1.98332e-012 4.25191e-014 -3.11918e-017)
(-2.05032e-012 1.29226e-013 1.55263e-017)
(-1.70656e-012 8.02303e-014 -1.54573e-017)
(-2.21593e-012 1.67415e-013 0)
(-1.31565e-012 1.33945e-013 0)
(-1.98716e-012 1.8834e-013 0)
(-1.33059e-012 2.35093e-013 1.51873e-017)
(-1.74121e-012 1.6708e-013 -1.51213e-017)
(-9.88818e-013 3.00745e-013 0)
(-1.83344e-012 2.06903e-013 7.49545e-018)
(-1.25145e-012 3.03642e-013 -5.43025e-033)
(-2.06805e-012 2.50135e-013 -7.43139e-018)
(-1.66362e-012 3.23559e-013 0)
(-2.15106e-012 3.67774e-013 0)
(-1.90805e-012 3.81225e-013 0)
(5.00613e-013 -3.01933e-014 -2.33116e-020)
(2.05644e-012 -7.39032e-014 0)
(-3.51771e-013 -5.04885e-014 -2.34009e-020)
(1.96362e-012 -4.11448e-014 -2.34457e-020)
(1.71517e-013 -1.12637e-013 0)
(8.49125e-013 -2.51136e-014 -2.3536e-020)
(5.67175e-013 -1.24861e-013 0)
(1.52216e-013 -6.61979e-014 -2.3627e-020)
(1.65728e-012 -1.25662e-013 -2.36727e-020)
(1.83367e-013 -1.20971e-013 0)
(8.57377e-013 -9.58489e-014 -2.37647e-020)
(6.13605e-013 -1.39339e-013 0)
(1.06566e-012 -1.33207e-013 -2.38575e-020)
(8.21339e-013 -1.48146e-013 -2.39041e-020)
(4.42334e-013 -1.52535e-013 0)
(9.48247e-013 -1.15391e-013 -2.39979e-020)
(3.09819e-013 -1.90975e-013 0)
(1.3452e-013 -1.09863e-013 -2.40925e-020)
(9.746e-013 -2.13194e-013 -2.41401e-020)
(-2.80492e-013 -1.38461e-013 0)