/*--------------------------------*- C++ -*----------------------------------*\
| =========                 |                                                 |
| \\      /  F ield         | OpenFOAM: The Open Source CFD Toolbox           |
|  \\    /   O peration     | Version:  5.x                                   |
|   \\  /    A nd           | Web:      www.OpenFOAM.org                      |
|    \\/     M anipulation  |                                                 |
\*---------------------------------------------------------------------------*/
/*   Windows 32 and 64 bit porting by blueCAPE: http://www.bluecape.com.pt   *\
|  Based on Windows porting (2.0.x v4) by Symscape: http://www.symscape.com   |
\*---------------------------------------------------------------------------*/
FoamFile
{
    version     2.0;
    format      ascii;
    class       volScalarField;
    location    "0.004";
    object      mag(U);
}
// * * * * * * * * * * * * * * * * * * * * * * * * * * * * * * * * * * * * * //

dimensions      [0 1 -1 0 0 0 0];

internalField   nonuniform List<scalar> 
100
(
4.50231
25.8243
105.771
241.122
315.38
249.841
4.5023
25.8247
105.764
241.169
315.047
247.818
4.50229
25.8251
105.757
241.232
314.688
246.668
4.50228
25.8254
105.751
241.291
314.396
250.909
4.50227
25.8256
105.747
241.338
314.157
263.406
4.50226
25.8261
105.738
241.434
313.416
276.7
4.50222
25.8273
105.715
241.606
312.332
273.749
4.50216
25.8289
105.68
241.834
311.095
269.796
4.50213
25.8297
105.66
241.963
310.367
267.729
4.50212
25.8299
105.654
241.998
310.17
267.2
216.926
172.616
216.978
169.072
217.401
169.442
217.834
170.583
218.008
171.085
9.87169
6.04786
0.427719
24.456
9.61321
0.629175
37.2733
13.521
0.860052
53.0844
16.6773
1.06326
82.9886
19.8545
1.21895
129.151
25.0071
1.50624
120.35
26.8046
1.77694
118.1
29.2166
1.99518
118.566
30.4458
2.06914
118.892
30.7253
2.08551
)
;

boundaryField
{
    inlet
    {
        type            calculated;
        value           nonuniform List<scalar> 10(4.50226 4.50222 4.50216 4.50213 4.50212 4.50231 4.5023 4.50229 4.50228 4.50227);
    }
    outlet
    {
        type            calculated;
        value           nonuniform List<scalar> 10(1.50624 1.77694 1.99518 2.06914 2.08551 0.427719 0.629175 0.860052 1.06326 1.21895);
    }
    bottom
    {
        type            symmetryPlane;
    }
    top
    {
        type            symmetryPlane;
    }
    obstacle
    {
        type            calculated;
        value           nonuniform List<scalar> 
12
(
249.841
247.818
246.668
250.909
263.406
9.87169
24.456
37.2733
53.0844
82.9886
216.926
172.616
)
;
    }
    defaultFaces
    {
        type            empty;
    }
}


// ************************************************************************* //
