/*--------------------------------*- C++ -*----------------------------------*\
| =========                 |                                                 |
| \\      /  F ield         | OpenFOAM: The Open Source CFD Toolbox           |
|  \\    /   O peration     | Version:  5.x                                   |
|   \\  /    A nd           | Web:      www.OpenFOAM.org                      |
|    \\/     M anipulation  |                                                 |
\*---------------------------------------------------------------------------*/
/*   Windows 32 and 64 bit porting by blueCAPE: http://www.bluecape.com.pt   *\
|  Based on Windows porting (2.0.x v4) by Symscape: http://www.symscape.com   |
\*---------------------------------------------------------------------------*/
FoamFile
{
    version     2.0;
    format      ascii;
    class       volScalarField;
    location    "0.004";
    object      p;
}
// * * * * * * * * * * * * * * * * * * * * * * * * * * * * * * * * * * * * * //

dimensions      [1 -1 -2 0 0 0 0];

internalField   nonuniform List<scalar> 
100
(
98599.1
87048.5
65143.2
42596.2
35282.7
22604.3
98599.1
87048.5
65141.7
42608
35301.7
22620
98599.1
87048.6
65140.2
42620.4
35308.5
22640.4
98599.1
87048.6
65138.9
42630.5
35305.1
22655.1
98599.1
87048.6
65138
42638
35307
22668.1
98599.1
87048.7
65135.9
42654.9
35290.7
22773.3
98599.1
87048.9
65130.4
42700.1
35354.6
22911.1
98599
87049.3
65120.9
42791
35385.9
23227.9
98599
87049.6
65114.8
42865.7
35278.2
23609.7
98599
87049.6
65113.2
42888.5
35228.8
23764.6
20202.3
18216.5
20275.2
18543.1
20704.1
19064.2
21076.9
19435.9
21215.5
19556.6
11245.4
10309.4
10024.9
11559.7
10408.6
10029
11974.5
10537
10033.7
12312.6
10651.2
10037.9
12645.6
10729.9
10041.1
13538.3
10865.4
10048.2
14388.3
11034.9
10059.4
14958.7
11181.1
10071.4
15238.1
11240.2
10076.9
15302.2
11254.1
10078.2
)
;

boundaryField
{
    inlet
    {
        type            zeroGradient;
    }
    outlet
    {
        type            zeroGradient;
    }
    bottom
    {
        type            symmetryPlane;
    }
    top
    {
        type            symmetryPlane;
    }
    obstacle
    {
        type            zeroGradient;
    }
    defaultFaces
    {
        type            empty;
    }
}


// ************************************************************************* //
