/*--------------------------------*- C++ -*----------------------------------*\
| =========                 |                                                 |
| \\      /  F ield         | OpenFOAM: The Open Source CFD Toolbox           |
|  \\    /   O peration     | Version:  5.x                                   |
|   \\  /    A nd           | Web:      www.OpenFOAM.org                      |
|    \\/     M anipulation  |                                                 |
\*---------------------------------------------------------------------------*/
/*   Windows 32 and 64 bit porting by blueCAPE: http://www.bluecape.com.pt   *\
|  Based on Windows porting (2.0.x v4) by Symscape: http://www.symscape.com   |
\*---------------------------------------------------------------------------*/
FoamFile
{
    version     2.0;
    format      ascii;
    class       surfaceScalarField;
    location    "0.004";
    object      phi;
}
// * * * * * * * * * * * * * * * * * * * * * * * * * * * * * * * * * * * * * //

dimensions      [1 0 -1 0 0 0 0];

internalField   nonuniform List<scalar> 
174
(
4.17272
9.999e-005
15.1771
-0.00186797
24.5744
0.0306334
21.5868
-0.248297
16.3258
0.579467
-1.90006
2.7905
0.000153286
10.1492
-0.00292342
16.4369
0.0481288
14.4214
-0.391246
10.854
1.09244
-3.13775
1.86614
0.000179752
6.78699
-0.00348731
10.9945
0.0574934
9.63207
-0.469655
7.21094
1.54237
-3.99342
1.24798
0.000192802
4.53862
-0.00378605
7.35399
0.0624278
6.43365
-0.510531
4.8576
1.77821
-4.52134
0.834577
0.00019939
3.0351
-0.00394575
4.91866
0.0650928
4.29791
-0.531772
3.346
1.81457
-4.79708
3.54232
0.00020674
12.8817
-0.0043391
20.8867
0.0680693
18.2006
-0.569522
14.5191
1.45155
-3.9541
7.60839
6.29947
0.000154498
22.9053
-0.00382106
37.1696
0.0551384
32.2793
-0.494393
25.2499
1.06785
-2.61568
13.5125
11.2028
5.94958e-005
40.7275
-0.00178849
66.1696
0.023983
57.2413
-0.240195
39.2385
0.490781
-1.27384
24.2342
19.9221
1.12228e-005
72.4208
-0.000422117
117.752
0.00536986
101.543
-0.0604374
63.4768
0.116952
-0.28867
43.4868
35.4273
128.783
209.439
180.428
110.827
77.6206
5.98301
-0.817264
-0.525049
4.32487
10.6142
-0.607014
-0.45053
7.66369
19.2551
-0.303769
-0.213687
13.9145
34.8434
-0.0703312
-0.0489647
25.1459
62.3446
44.8571
0.163336
-0.720577
0.0932479
-0.576261
-0.0757857
0.145477
-1.33763
0.0805731
-1.0768
-0.126841
0.146765
-1.85746
0.0690754
-1.4941
-0.161875
0.210945
-2.19377
0.0564736
-1.72257
-0.185036
0.352061
-2.38188
0.0504842
-1.67978
-0.192751
2.11038
-1.49442
0.328328
-1.08122
-0.15342
3.77309
-0.707244
0.678372
-0.499863
-0.0919272
6.85547
-0.243621
1.33923
-0.149827
-0.0333377
12.4254
-0.0447587
2.48869
-0.0246987
-0.00604978
22.2211
4.4677
)
;

boundaryField
{
    inlet
    {
        type            calculated;
        value           nonuniform List<scalar> 10(-0.717282 -1.27552 -2.2682 -4.03346 -7.17261 -0.844987 -0.565076 -0.377888 -0.252708 -0.168996);
    }
    outlet
    {
        type            calculated;
        value           nonuniform List<scalar> 10(0.0285948 0.0619671 0.125344 0.231674 0.415284 0.00969807 0.00895626 0.00812531 0.00676482 0.00523023);
    }
    bottom
    {
        type            symmetryPlane;
        value           uniform 0;
    }
    top
    {
        type            symmetryPlane;
        value           uniform 0;
    }
    obstacle
    {
        type            calculated;
        value           nonuniform List<scalar> 
12
(
9.91174
6.57762
4.38161
2.98326
2.089
-0.129903
-0.115984
-0.12356
-0.207418
-0.375678
0.872711
0.485963
)
;
    }
    defaultFaces
    {
        type            empty;
        value           nonuniform 0();
    }
}


// ************************************************************************* //
