/*--------------------------------*- C++ -*----------------------------------*\
| =========                 |                                                 |
| \\      /  F ield         | OpenFOAM: The Open Source CFD Toolbox           |
|  \\    /   O peration     | Version:  5.x                                   |
|   \\  /    A nd           | Web:      www.OpenFOAM.org                      |
|    \\/     M anipulation  |                                                 |
\*---------------------------------------------------------------------------*/
/*   Windows 32 and 64 bit porting by blueCAPE: http://www.bluecape.com.pt   *\
|  Based on Windows porting (2.0.x v4) by Symscape: http://www.symscape.com   |
\*---------------------------------------------------------------------------*/
FoamFile
{
    version     2.0;
    format      ascii;
    class       volScalarField;
    location    "0.004";
    object      T;
}
// * * * * * * * * * * * * * * * * * * * * * * * * * * * * * * * * * * * * * //

dimensions      [0 0 0 1 0 0 0];

internalField   nonuniform List<scalar> 
100
(
346.975
335.095
294.832
343.124
393.551
377.795
346.975
335.095
294.83
343.159
393.793
377.459
346.975
335.095
294.828
343.199
394.015
377.026
346.975
335.095
294.827
343.232
394.188
376.518
346.975
335.095
294.826
343.253
394.358
377.66
346.975
335.095
294.823
343.275
394.894
379.445
346.975
335.095
294.817
343.408
395.677
378.451
346.975
335.095
294.805
343.661
396.415
378.018
346.975
335.095
294.797
343.863
396.394
378.783
346.975
335.095
294.795
343.923
396.313
379.25
341.931
328.501
342.517
330.552
345.147
333.573
347.657
335.595
348.557
336.243
288.284
281.202
278.946
290.545
281.982
278.978
293.488
282.992
279.017
296.248
283.953
279.052
300.941
284.955
279.079
305.553
286.247
279.141
310.425
287.547
279.235
313.529
288.651
279.334
315.121
289.122
279.38
315.482
289.233
279.39
)
;

boundaryField
{
    inlet
    {
        type            zeroGradient;
    }
    outlet
    {
        type            zeroGradient;
    }
    bottom
    {
        type            symmetryPlane;
    }
    top
    {
        type            symmetryPlane;
    }
    obstacle
    {
        type            zeroGradient;
    }
    defaultFaces
    {
        type            empty;
    }
}


// ************************************************************************* //
