/*--------------------------------*- C++ -*----------------------------------*\
| =========                 |                                                 |
| \\      /  F ield         | OpenFOAM: The Open Source CFD Toolbox           |
|  \\    /   O peration     | Version:  5.x                                   |
|   \\  /    A nd           | Web:      www.OpenFOAM.org                      |
|    \\/     M anipulation  |                                                 |
\*---------------------------------------------------------------------------*/
/*   Windows 32 and 64 bit porting by blueCAPE: http://www.bluecape.com.pt   *\
|  Based on Windows porting (2.0.x v4) by Symscape: http://www.symscape.com   |
\*---------------------------------------------------------------------------*/
FoamFile
{
    version     2.0;
    format      ascii;
    class       volVectorField;
    location    "0.004";
    object      U;
}
// * * * * * * * * * * * * * * * * * * * * * * * * * * * * * * * * * * * * * //

dimensions      [0 1 -1 0 0 0 0];

internalField   nonuniform List<vector> 
100
(
(4.50231 1.07086e-005 0)
(25.8243 -0.000304262 0)
(105.771 0.00799554 0)
(241.122 -0.159951 0)
(315.38 0.658133 0)
(249.79 -5.01727 0)
(4.5023 2.68653e-005 0)
(25.8247 -0.000769661 0)
(105.764 0.0204176 0)
(241.169 -0.407931 0)
(315.041 1.95377 0)
(247.489 -12.774 0)
(4.50229 3.50286e-005 0)
(25.8251 -0.00101832 0)
(105.757 0.0272067 0)
(241.231 -0.54478 0)
(314.672 3.15393 0)
(246.022 -17.8364 0)
(4.50228 3.90905e-005 0)
(25.8254 -0.00115226 0)
(105.751 0.0308056 0)
(241.29 -0.618321 0)
(314.371 3.99903 0)
(249.969 -21.7002 0)
(4.50227 4.1152e-005 0)
(25.8256 -0.00122433 0)
(105.747 0.0328165 0)
(241.337 -0.658258 0)
(314.127 4.40147 0)
(262.36 -23.456 0)
(4.50226 4.35646e-005 0)
(25.8261 -0.00134331 0)
(105.738 0.0349585 0)
(241.433 -0.708734 0)
(313.39 4.02339 0)
(275.839 -21.8064 0)
(4.50222 3.85886e-005 0)
(25.8273 -0.00134864 0)
(105.715 0.0323954 0)
(241.605 -0.691514 0)
(312.318 2.9952 0)
(273.368 -14.4376 0)
(4.50216 1.95646e-005 0)
(25.8289 -0.000819852 0)
(105.68 0.0182262 0)
(241.833 -0.425965 0)
(311.091 1.64966 0)
(269.69 -7.57288 0)
(4.50213 4.0419e-006 0)
(25.8297 -0.000217107 0)
(105.66 0.00455007 0)
(241.963 -0.122831 0)
(310.366 0.452012 0)
(267.721 -2.12016 0)
(4.50212 4.34755e-007 0)
(25.8299 -2.75805e-005 0)
(105.654 0.000556668 0)
(241.998 -0.0159625 0)
(310.17 0.0594288 0)
(267.2 -0.275906 0)
(216.258 -17.0138 0)
(172.317 -10.1592 0)
(216.583 -13.0898 0)
(168.759 -10.2726 0)
(217.277 -7.32861 0)
(169.352 -5.53756 0)
(217.824 -2.0328 0)
(170.576 -1.51885 0)
(218.008 -0.268453 0)
(171.085 -0.196632 0)
(5.11522 -8.44304 0)
(5.64067 -2.18162 0)
(0.416925 -0.0954839 0)
(6.68475 -23.5246 0)
(7.2318 -6.33363 0)
(0.575094 -0.255204 0)
(10.3414 -35.81 0)
(9.20446 -9.90428 0)
(0.779472 -0.363472 0)
(25.2801 -46.6783 0)
(11.1722 -12.382 0)
(0.969622 -0.436306 0)
(67.4556 -48.3409 0)
(14.8513 -13.1772 0)
(1.11998 -0.481133 0)
(124.524 -34.2618 0)
(22.7588 -10.363 0)
(1.43928 -0.444111 0)
(119.257 -16.1863 0)
(26.3872 -4.71172 0)
(1.75182 -0.297712 0)
(117.941 -6.13573 0)
(29.1676 -1.69193 0)
(1.991 -0.128999 0)
(118.559 -1.34543 0)
(30.4443 -0.298865 0)
(2.06899 -0.0253108 0)
(118.892 -0.147993 0)
(30.7253 -0.031718 0)
(2.08551 -0.0027307 0)
)
;

boundaryField
{
    inlet
    {
        type            zeroGradient;
    }
    outlet
    {
        type            zeroGradient;
    }
    bottom
    {
        type            symmetryPlane;
    }
    top
    {
        type            symmetryPlane;
    }
    obstacle
    {
        type            zeroGradient;
    }
    defaultFaces
    {
        type            empty;
    }
}


// ************************************************************************* //
