/*--------------------------------*- C++ -*----------------------------------*\
| =========                 |                                                 |
| \\      /  F ield         | OpenFOAM: The Open Source CFD Toolbox           |
|  \\    /   O peration     | Version:  5.x                                   |
|   \\  /    A nd           | Web:      www.OpenFOAM.org                      |
|    \\/     M anipulation  |                                                 |
\*---------------------------------------------------------------------------*/
/*   Windows 32 and 64 bit porting by blueCAPE: http://www.bluecape.com.pt   *\
|  Based on Windows porting (2.0.x v4) by Symscape: http://www.symscape.com   |
\*---------------------------------------------------------------------------*/
FoamFile
{
    version     2.0;
    format      ascii;
    class       volScalarField;
    location    "0.003";
    object      mag(U);
}
// * * * * * * * * * * * * * * * * * * * * * * * * * * * * * * * * * * * * * //

dimensions      [0 1 -1 0 0 0 0];

internalField   nonuniform List<scalar> 
100
(
2.1218
15.7061
88.4314
245.126
276.829
123.759
2.1218
15.7061
88.4295
245.146
276.631
123.121
2.1218
15.7061
88.4275
245.169
276.399
122.439
2.1218
15.7061
88.426
245.189
276.198
122.483
2.1218
15.7062
88.4249
245.205
276.042
127.322
2.1218
15.7062
88.4226
245.241
275.617
144.119
2.12179
15.7062
88.4176
245.296
275.081
143.247
2.12178
15.7063
88.413
245.342
274.644
142.665
2.12178
15.7063
88.4116
245.356
274.497
142.491
2.12178
15.7063
88.4113
245.359
274.469
142.459
66.9895
38.1044
68.864
37.4615
70.4366
37.4068
70.9389
37.5101
71.0371
37.5392
1.16908
0.474107
0.0219446
3.24415
0.861976
0.0407993
5.08582
1.31011
0.0604457
6.51778
1.6962
0.0776188
8.35901
2.05408
0.0912364
19.3378
2.43411
0.125359
18.0042
2.76524
0.150101
17.6858
3.11142
0.165151
17.7132
3.19014
0.168028
17.7249
3.20363
0.168507
)
;

boundaryField
{
    inlet
    {
        type            calculated;
        value           nonuniform List<scalar> 10(2.1218 2.12179 2.12178 2.12178 2.12178 2.1218 2.1218 2.1218 2.1218 2.1218);
    }
    outlet
    {
        type            calculated;
        value           nonuniform List<scalar> 10(0.125359 0.150101 0.165151 0.168028 0.168507 0.0219446 0.0407993 0.0604457 0.0776188 0.0912364);
    }
    bottom
    {
        type            symmetryPlane;
    }
    top
    {
        type            symmetryPlane;
    }
    obstacle
    {
        type            calculated;
        value           nonuniform List<scalar> 
12
(
123.759
123.121
122.439
122.483
127.322
1.16908
3.24415
5.08582
6.51778
8.35901
66.9895
38.1044
)
;
    }
    defaultFaces
    {
        type            empty;
    }
}


// ************************************************************************* //
