/*--------------------------------*- C++ -*----------------------------------*\
| =========                 |                                                 |
| \\      /  F ield         | OpenFOAM: The Open Source CFD Toolbox           |
|  \\    /   O peration     | Version:  5.x                                   |
|   \\  /    A nd           | Web:      www.OpenFOAM.org                      |
|    \\/     M anipulation  |                                                 |
\*---------------------------------------------------------------------------*/
/*   Windows 32 and 64 bit porting by blueCAPE: http://www.bluecape.com.pt   *\
|  Based on Windows porting (2.0.x v4) by Symscape: http://www.symscape.com   |
\*---------------------------------------------------------------------------*/
FoamFile
{
    version     2.0;
    format      ascii;
    class       volScalarField;
    location    "0.003";
    object      p;
}
// * * * * * * * * * * * * * * * * * * * * * * * * * * * * * * * * * * * * * //

dimensions      [1 -1 -2 0 0 0 0];

internalField   nonuniform List<scalar> 
100
(
99416
91465.8
70545.8
43682.7
25822.5
14714.5
99416
91465.8
70545.4
43690.1
25794.7
14826.8
99416
91465.8
70545
43696.4
25763.2
14953.9
99416
91465.9
70544.7
43701.3
25735.7
15060
99416
91465.9
70544.5
43704.8
25714.6
15143.7
99416
91465.9
70544
43712.3
25667.2
15372
99416
91466
70543.1
43731.7
25585.8
15687.5
99416
91466
70542.2
43754.7
25507
15972.5
99416
91466.1
70541.9
43763.2
25478.3
16097
99416
91466.1
70541.9
43765.1
25472.2
16122.7
12571.8
11617
12611.9
11661.2
12678.2
11707.3
12708.8
11727.8
12715.8
11732.1
10123.4
10019.9
10001.5
10173
10029.8
10002
10233.3
10042.5
10002.6
10287.4
10054.4
10003
10330.4
10064
10003.3
10450.1
10087.9
10004
10577.2
10109.2
10005.2
10667.6
10123
10006.3
10690.9
10126.1
10006.5
10695.1
10126.6
10006.6
)
;

boundaryField
{
    inlet
    {
        type            zeroGradient;
    }
    outlet
    {
        type            zeroGradient;
    }
    bottom
    {
        type            symmetryPlane;
    }
    top
    {
        type            symmetryPlane;
    }
    obstacle
    {
        type            zeroGradient;
    }
    defaultFaces
    {
        type            empty;
    }
}


// ************************************************************************* //
