/*--------------------------------*- C++ -*----------------------------------*\
| =========                 |                                                 |
| \\      /  F ield         | OpenFOAM: The Open Source CFD Toolbox           |
|  \\    /   O peration     | Version:  5.x                                   |
|   \\  /    A nd           | Web:      www.OpenFOAM.org                      |
|    \\/     M anipulation  |                                                 |
\*---------------------------------------------------------------------------*/
/*   Windows 32 and 64 bit porting by blueCAPE: http://www.bluecape.com.pt   *\
|  Based on Windows porting (2.0.x v4) by Symscape: http://www.symscape.com   |
\*---------------------------------------------------------------------------*/
FoamFile
{
    version     2.0;
    format      ascii;
    class       surfaceScalarField;
    location    "0.003";
    object      phi;
}
// * * * * * * * * * * * * * * * * * * * * * * * * * * * * * * * * * * * * * //

dimensions      [1 0 -1 0 0 0 0];

internalField   nonuniform List<scalar> 
174
(
2.37375
1.49993e-006
13.408
-0.000355202
24.2061
0.00163702
17.0912
-0.076965
5.88374
0.220203
-0.809988
1.58742
2.31088e-006
8.96633
-0.000551151
16.1892
0.00278214
11.4195
-0.118178
3.93128
0.385797
-1.41315
1.06158
2.775e-006
5.99606
-0.000638273
10.8275
0.00349714
7.62835
-0.136964
2.62666
0.508414
-1.8588
0.709918
3.00948e-006
4.00976
-0.000674098
7.24145
0.00388083
5.09629
-0.145656
1.75954
0.59429
-2.18007
0.474751
3.11992e-006
2.68147
-0.000687643
4.84297
0.00407857
3.40508
-0.149088
1.2003
0.631356
-2.41292
2.01503
2.87075e-006
11.381
-0.000653163
20.5593
0.00338061
14.42
-0.13792
5.45311
0.459996
-1.71273
1.83132
3.58329
1.3813e-006
20.2379
-0.000399815
36.5708
0.00166566
25.5825
-0.0819204
9.73693
0.234448
-0.900657
3.32866
6.3721
2.58682e-007
35.9875
-0.000135556
65.0512
0.000437935
45.4071
-0.0268795
17.381
0.0732356
-0.269607
6.03882
11.3314
-8.26298e-009
63.9952
-2.14513e-005
115.69
4.97549e-005
80.697
-0.00417555
30.9667
0.0109882
-0.042272
10.8136
20.1503
113.801
205.732
143.485
55.0892
19.2565
1.13256
-0.100046
-0.0354683
0.603239
2.03683
-0.0626406
-0.028725
1.05493
3.68002
-0.0212285
-0.00973683
1.87355
6.58684
-0.00345908
-0.00165054
3.34353
11.7294
5.95109
0.0119726
-0.0910348
0.00693187
-0.0481979
-0.00719554
0.012199
-0.169044
0.00715014
-0.092282
-0.0117165
0.0117602
-0.234666
0.00694386
-0.131538
-0.0141954
0.0104258
-0.28633
0.00599313
-0.16349
-0.0153997
0.0138725
-0.323613
0.00475646
-0.182349
-0.015903
0.265292
-0.191059
0.0299587
-0.0997729
-0.0126311
0.46929
-0.0735266
0.0672528
-0.0328922
-0.00628617
0.839198
-0.0185428
0.135538
-0.00784703
-0.00173905
1.50039
-0.00210576
0.247069
-0.000791818
-0.000214456
2.67119
0.441149
)
;

boundaryField
{
    inlet
    {
        type            calculated;
        value           nonuniform List<scalar> 10(-0.339029 -0.602888 -1.0721 -1.90649 -3.39028 -0.399387 -0.267086 -0.178611 -0.119444 -0.0798772);
    }
    outlet
    {
        type            calculated;
        value           nonuniform List<scalar> 10(0.00236332 0.00520079 0.0102778 0.0186107 0.033189 0.000459916 0.000510409 0.000525149 0.000471094 0.000380172);
    }
    bottom
    {
        type            symmetryPlane;
        value           uniform 0;
    }
    top
    {
        type            symmetryPlane;
        value           uniform 0;
    }
    obstacle
    {
        type            calculated;
        value           nonuniform List<scalar> 
12
(
3.72772
2.49077
1.66396
1.11712
0.778952
-0.00974678
-0.0100036
-0.00968572
-0.00873096
-0.0138728
0.106343
0.0287736
)
;
    }
    defaultFaces
    {
        type            empty;
        value           nonuniform 0();
    }
}


// ************************************************************************* //
