/*--------------------------------*- C++ -*----------------------------------*\
| =========                 |                                                 |
| \\      /  F ield         | OpenFOAM: The Open Source CFD Toolbox           |
|  \\    /   O peration     | Version:  5.x                                   |
|   \\  /    A nd           | Web:      www.OpenFOAM.org                      |
|    \\/     M anipulation  |                                                 |
\*---------------------------------------------------------------------------*/
/*   Windows 32 and 64 bit porting by blueCAPE: http://www.bluecape.com.pt   *\
|  Based on Windows porting (2.0.x v4) by Symscape: http://www.symscape.com   |
\*---------------------------------------------------------------------------*/
FoamFile
{
    version     2.0;
    format      ascii;
    class       volScalarField;
    location    "0.003";
    object      T;
}
// * * * * * * * * * * * * * * * * * * * * * * * * * * * * * * * * * * * * * //

dimensions      [0 0 0 1 0 0 0];

internalField   nonuniform List<scalar> 
100
(
347.835
339.602
302.717
376.755
380.24
322.993
347.835
339.602
302.717
376.771
380.196
323.586
347.835
339.602
302.717
376.783
380.148
324.251
347.835
339.602
302.717
376.792
380.107
324.78
347.835
339.602
302.717
376.798
380.097
325.229
347.835
339.602
302.716
376.807
380.249
325.639
347.835
339.602
302.715
376.846
380.119
327.221
347.835
339.602
302.715
376.896
379.962
328.598
347.835
339.602
302.714
376.916
379.897
329.232
347.835
339.602
302.714
376.92
379.883
329.364
297.535
290.997
297.789
291.329
298.216
291.667
298.417
291.816
298.462
291.847
279.727
278.905
278.758
280.119
278.984
278.762
280.592
279.085
278.766
281.016
279.18
278.77
281.378
279.258
278.772
282.37
279.456
278.778
283.339
279.628
278.788
284.024
279.739
278.796
284.201
279.763
278.798
284.233
279.767
278.799
)
;

boundaryField
{
    inlet
    {
        type            zeroGradient;
    }
    outlet
    {
        type            zeroGradient;
    }
    bottom
    {
        type            symmetryPlane;
    }
    top
    {
        type            symmetryPlane;
    }
    obstacle
    {
        type            zeroGradient;
    }
    defaultFaces
    {
        type            empty;
    }
}


// ************************************************************************* //
