/*--------------------------------*- C++ -*----------------------------------*\
| =========                 |                                                 |
| \\      /  F ield         | OpenFOAM: The Open Source CFD Toolbox           |
|  \\    /   O peration     | Version:  5.x                                   |
|   \\  /    A nd           | Web:      www.OpenFOAM.org                      |
|    \\/     M anipulation  |                                                 |
\*---------------------------------------------------------------------------*/
/*   Windows 32 and 64 bit porting by blueCAPE: http://www.bluecape.com.pt   *\
|  Based on Windows porting (2.0.x v4) by Symscape: http://www.symscape.com   |
\*---------------------------------------------------------------------------*/
FoamFile
{
    version     2.0;
    format      ascii;
    class       volVectorField;
    location    "0.003";
    object      U;
}
// * * * * * * * * * * * * * * * * * * * * * * * * * * * * * * * * * * * * * //

dimensions      [0 1 -1 0 0 0 0];

internalField   nonuniform List<vector> 
100
(
(2.1218 1.61391e-007 0)
(15.7061 -5.48624e-005 0)
(88.4314 0.000395577 0)
(245.126 -0.0523037 0)
(276.829 0.337456 0)
(123.731 -2.66221 0)
(2.1218 4.05257e-007 0)
(15.7061 -0.000139547 0)
(88.4295 0.00107255 0)
(245.145 -0.132683 0)
(276.63 0.947187 0)
(122.907 -7.26198 0)
(2.1218 5.34131e-007 0)
(15.7061 -0.000182334 0)
(88.4275 0.00152827 0)
(245.169 -0.173065 0)
(276.396 1.41932 0)
(121.978 -10.619 0)
(2.1218 6.03995e-007 0)
(15.7061 -0.00020057 0)
(88.426 0.00179021 0)
(245.189 -0.190943 0)
(276.192 1.74868 0)
(121.782 -13.0868 0)
(2.1218 6.41687e-007 0)
(15.7062 -0.000208285 0)
(88.4249 0.00195939 0)
(245.205 -0.200469 0)
(276.035 2.00811 0)
(126.421 -15.1206 0)
(2.1218 6.5684e-007 0)
(15.7062 -0.000208712 0)
(88.4226 0.00184312 0)
(245.241 -0.197578 0)
(275.611 1.77455 0)
(143.517 -13.1644 0)
(2.12179 4.26347e-007 0)
(15.7062 -0.000160086 0)
(88.4176 0.00115886 0)
(245.296 -0.144694 0)
(275.08 1.02313 0)
(143.087 -6.76472 0)
(2.12178 9.66771e-008 0)
(15.7063 -6.68526e-005 0)
(88.413 0.00037941 0)
(245.342 -0.0579898 0)
(274.644 0.377355 0)
(142.643 -2.51072 0)
(2.12178 -2.28039e-009 0)
(15.7063 -1.12348e-005 0)
(88.4116 4.66253e-005 0)
(245.356 -0.00960089 0)
(274.497 0.0601339 0)
(142.49 -0.430999 0)
(2.12178 -1.4958e-009 0)
(15.7063 -1.11981e-006 0)
(88.4113 3.43854e-006 0)
(245.359 -0.00094959 0)
(274.469 0.005851 0)
(142.459 -0.0418302 0)
(66.9263 -2.90839 0)
(38.095 -0.843514 0)
(68.8333 -2.05461 0)
(37.4461 -1.07271 0)
(70.4312 -0.871039 0)
(37.4043 -0.431559 0)
(70.9388 -0.153215 0)
(37.51 -0.0794929 0)
(71.0371 -0.0154318 0)
(37.5392 -0.00775858 0)
(0.417685 -1.09192 0)
(0.438366 -0.18059 0)
(0.0199903 -0.00905292 0)
(0.636921 -3.18102 0)
(0.670001 -0.542311 0)
(0.0330729 -0.0238906 0)
(0.916287 -5.0026 0)
(0.966006 -0.884995 0)
(0.0507752 -0.0327959 0)
(1.22756 -6.40114 0)
(1.24086 -1.15645 0)
(0.0680263 -0.0373777 0)
(2.87426 -7.84931 0)
(1.46806 -1.43668 0)
(0.0820361 -0.0399271 0)
(18.3283 -6.16629 0)
(2.16626 -1.11005 0)
(0.119954 -0.0364123 0)
(17.8332 -2.47536 0)
(2.73906 -0.379624 0)
(0.148437 -0.0222908 0)
(17.6705 -0.735122 0)
(3.10967 -0.10435 0)
(0.16499 -0.0072838 0)
(17.713 -0.0868016 0)
(3.19012 -0.0108315 0)
(0.168026 -0.000939359 0)
(17.7249 -0.00746259 0)
(3.20363 -0.000889603 0)
(0.168507 -7.9301e-005 0)
)
;

boundaryField
{
    inlet
    {
        type            zeroGradient;
    }
    outlet
    {
        type            zeroGradient;
    }
    bottom
    {
        type            symmetryPlane;
    }
    top
    {
        type            symmetryPlane;
    }
    obstacle
    {
        type            zeroGradient;
    }
    defaultFaces
    {
        type            empty;
    }
}


// ************************************************************************* //
