/*--------------------------------*- C++ -*----------------------------------*\
| =========                 |                                                 |
| \\      /  F ield         | OpenFOAM: The Open Source CFD Toolbox           |
|  \\    /   O peration     | Version:  5.x                                   |
|   \\  /    A nd           | Web:      www.OpenFOAM.org                      |
|    \\/     M anipulation  |                                                 |
\*---------------------------------------------------------------------------*/
/*   Windows 32 and 64 bit porting by blueCAPE: http://www.bluecape.com.pt   *\
|  Based on Windows porting (2.0.x v4) by Symscape: http://www.symscape.com   |
\*---------------------------------------------------------------------------*/
FoamFile
{
    version     2.0;
    format      ascii;
    class       volScalarField;
    location    "0.002";
    object      mag(U);
}
// * * * * * * * * * * * * * * * * * * * * * * * * * * * * * * * * * * * * * //

dimensions      [0 1 -1 0 0 0 0];

internalField   nonuniform List<scalar> 
1000
(
3.6294e-013
7.03394e-013
6.15574e-013
4.28343e-013
7.79602e-013
3.92225e-013
6.94962e-013
4.13909e-013
7.16379e-013
6.66842e-013
4.8916e-013
5.50299e-013
1.16951e-012
7.24006e-013
5.16648e-013
8.97687e-013
4.64243e-013
4.52936e-013
4.60562e-013
6.09171e-013
6.25523e-013
8.14434e-013
5.58631e-013
6.70981e-013
1.53328e-012
1.79455e-012
1.54629e-012
1.35421e-012
9.74919e-013
9.48144e-013
1.16883e-012
6.74711e-013
3.79629e-013
3.74255e-013
4.3407e-013
3.81953e-013
7.50922e-013
4.32006e-013
4.24651e-013
4.1875e-013
4.9024e-013
9.84821e-013
3.85829e-013
4.43426e-013
4.16784e-013
4.09215e-013
5.78206e-013
4.91633e-013
8.09711e-013
3.8524e-013
6.84702e-013
4.3768e-013
9.14255e-013
4.48749e-013
7.25146e-013
9.41107e-013
8.58586e-013
8.53296e-013
9.26036e-013
7.29155e-013
6.90126e-013
6.30978e-013
5.6441e-013
5.98373e-013
5.83671e-013
6.68041e-013
6.5892e-013
6.51264e-013
6.73979e-013
7.76225e-013
6.54255e-013
6.77197e-013
6.92499e-013
8.29956e-013
8.62881e-013
8.62034e-013
8.26839e-013
5.70631e-013
6.10858e-013
7.59244e-013
6.50774e-013
5.72196e-013
7.74794e-013
6.10079e-013
9.52985e-013
5.65864e-013
6.58057e-013
5.07504e-013
6.55433e-013
9.45944e-013
8.09168e-013
8.64509e-013
8.924e-013
6.10112e-013
9.5933e-013
1.30042e-012
4.39949e-013
5.27135e-013
3.92124e-013
4.13624e-013
3.84901e-013
4.08669e-013
5.63697e-013
5.31364e-013
5.6198e-013
4.36375e-013
5.31999e-013
3.70576e-013
3.86897e-013
3.55506e-013
6.06527e-013
5.56555e-013
6.12017e-013
6.85237e-013
3.3177e-013
3.86806e-013
3.96871e-013
4.04929e-013
7.39155e-013
5.87504e-013
6.36579e-013
4.46286e-013
4.87942e-013
1.01282e-012
6.8335e-013
1.24862e-012
1.38586e-012
1.34527e-012
1.2174e-012
7.74838e-013
6.55929e-013
5.6172e-013
5.90252e-013
5.64282e-013
5.64649e-013
6.78082e-013
6.91015e-013
1.8629e-012
6.09189e-012
2.35674e-011
8.51447e-011
3.05622e-010
1.07245e-009
3.69488e-009
1.24843e-008
4.13315e-008
1.34008e-007
4.25242e-007
1.31974e-006
4.00275e-006
1.18548e-005
3.42539e-005
9.64699e-005
0.000264538
0.000705515
0.00182769
0.00459279
0.011178
0.026304
0.0597342
0.130632
0.274475
0.552708
1.06384
1.95199
3.40565
5.63779
8.84105
13.1198
18.431
24.6098
31.4641
38.8362
46.6092
54.6974
63.0367
71.5782
80.2835
89.1215
98.0664
107.096
116.19
125.332
134.501
143.691
152.863
162.047
171.154
180.248
189.265
198.168
206.996
215.679
224.165
232.463
240.525
248.266
255.631
262.573
269.005
274.817
279.906
284.222
287.69
290.341
292.148
293.137
293.636
293.856
293.924
293.902
293.693
293.335
292.969
292.67
292.546
292.548
292.602
292.8
293.244
293.354
292.945
292.65
292.634
292.798
292.969
293.12
293.243
293.317
293.322
293.26
293.171
293.106
293.034
292.879
292.644
292.327
291.864
291.149
289.926
287.633
283.24
274.342
252.951
191.172
87.6509
22.7441
4.61048
0.832643
0.144632
0.0249289
0.00429149
0.000738703
0.000127156
2.18863e-005
3.76626e-006
6.47848e-007
1.11369e-007
1.91278e-008
3.28152e-009
5.6247e-010
9.61949e-011
1.70451e-011
3.15479e-012
9.28763e-013
2.54443e-013
5.64635e-013
8.27162e-013
8.31941e-013
5.9679e-013
5.7688e-013
5.43577e-013
9.92407e-013
8.5395e-013
8.2984e-013
7.99812e-013
4.96591e-013
7.99697e-013
9.35784e-013
7.64393e-013
4.58042e-013
4.30561e-013
4.08321e-013
6.06889e-013
7.57644e-013
5.12919e-013
5.173e-013
4.43757e-013
4.64345e-013
9.72546e-013
4.44454e-013
5.04275e-013
5.5338e-013
5.05541e-013
6.25801e-013
7.86699e-013
7.20066e-013
5.21876e-013
4.94181e-013
4.65073e-013
3.55206e-013
3.56908e-013
8.4062e-013
4.49995e-013
3.68808e-013
8.63338e-013
1.31507e-012
1.37211e-012
1.43695e-012
8.90754e-013
1.32268e-012
1.57295e-012
1.2735e-012
1.06401e-012
1.60227e-012
1.31132e-012
9.67277e-013
7.25135e-013
9.36824e-013
1.19059e-012
1.16022e-012
1.1194e-012
7.95729e-013
5.02189e-013
5.37009e-013
5.88881e-013
5.08117e-013
6.44647e-013
4.09076e-013
4.60959e-013
8.7795e-013
7.17014e-013
4.03975e-013
6.06614e-013
8.67982e-013
3.75307e-013
1.05881e-012
5.18247e-013
9.15659e-013
7.44827e-013
4.19024e-013
1.04677e-012
4.77743e-013
4.14384e-013
3.90646e-013
6.61792e-013
5.018e-013
4.62856e-013
5.51014e-013
4.719e-013
7.80615e-013
3.71481e-013
7.27055e-013
4.13121e-013
5.28501e-013
5.21899e-013
7.3134e-013
5.91215e-013
1.55741e-012
1.60539e-012
1.81375e-012
1.68522e-012
1.70714e-012
1.48129e-012
1.85361e-012
1.59432e-012
1.48356e-012
1.36426e-012
9.5894e-013
6.87897e-013
8.32113e-013
6.95774e-013
7.94292e-013
8.86306e-013
6.76192e-013
8.07343e-013
9.25809e-013
9.11923e-013
5.90605e-013
9.41597e-013
5.68649e-013
6.32508e-013
5.55936e-013
5.79062e-013
1.22072e-012
8.08121e-013
1.1105e-012
9.43543e-013
4.94822e-013
7.24919e-013
5.65988e-013
6.44942e-013
6.75674e-013
4.44272e-013
4.41173e-013
4.66664e-013
4.76064e-013
4.50088e-013
7.76494e-013
4.36806e-013
5.68515e-013
1.18544e-012
1.47258e-012
3.94436e-013
4.61955e-013
3.15536e-013
4.82765e-013
3.8427e-013
5.95286e-013
7.73306e-013
8.85383e-013
4.66169e-013
8.7327e-013
2.79995e-013
2.89435e-013
4.40442e-013
3.26029e-013
2.98103e-013
4.2087e-013
4.77173e-013
4.71091e-013
4.84661e-013
9.09608e-013
7.04555e-013
1.27195e-012
1.29025e-012
1.75903e-012
1.24487e-012
9.78636e-013
7.17211e-013
5.55471e-013
5.59114e-013
7.97362e-013
6.12515e-013
5.59374e-013
5.75101e-013
6.02059e-013
1.25924e-012
5.908e-012
2.25858e-011
8.51514e-011
3.05177e-010
1.07264e-009
3.69561e-009
1.2485e-008
4.13315e-008
1.34008e-007
4.25241e-007
1.31974e-006
4.00275e-006
1.18548e-005
3.42539e-005
9.64699e-005
0.000264538
0.000705515
0.00182769
0.00459279
0.011178
0.026304
0.0597342
0.130632
0.274475
0.552708
1.06384
1.95199
3.40565
5.63779
8.84105
13.1198
18.431
24.6098
31.4641
38.8362
46.6092
54.6974
63.0367
71.5782
80.2835
89.1215
98.0664
107.096
116.19
125.332
134.501
143.691
152.863
162.047
171.154
180.248
189.265
198.168
206.996
215.679
224.165
232.463
240.525
248.266
255.631
262.573
269.005
274.817
279.906
284.222
287.69
290.341
292.148
293.137
293.636
293.856
293.924
293.902
293.693
293.335
292.969
292.67
292.546
292.548
292.602
292.8
293.244
293.354
292.945
292.65
292.634
292.798
292.969
293.12
293.243
293.317
293.322
293.26
293.171
293.106
293.034
292.879
292.644
292.327
291.864
291.149
289.926
287.633
283.24
274.342
252.951
191.172
87.6509
22.7441
4.61048
0.832643
0.144632
0.0249289
0.00429149
0.000738703
0.000127156
2.18863e-005
3.76627e-006
6.4785e-007
1.11369e-007
1.91281e-008
3.2812e-009
5.61714e-010
9.56797e-011
1.60191e-011
2.50522e-012
3.65849e-013
2.89372e-013
2.45519e-013
4.82866e-013
3.2663e-013
3.46374e-013
4.35942e-013
3.96267e-013
5.18506e-013
3.3898e-013
5.77031e-013
3.41347e-013
3.39094e-013
5.38009e-013
3.38029e-013
6.08531e-013
6.10119e-013
1.02787e-012
1.46724e-012
1.04072e-012
1.30192e-012
5.78744e-013
9.15984e-013
8.12884e-013
7.61455e-013
9.98771e-013
1.38388e-012
1.41994e-012
1.29357e-012
1.25543e-012
9.52816e-013
5.74883e-013
6.63791e-013
8.72537e-013
1.29731e-012
1.15351e-012
1.93386e-012
1.66712e-012
1.20033e-012
1.60044e-012
1.66712e-012
1.26701e-012
1.86718e-012
8.00219e-013
1.93386e-012
1.13364e-012
1.13364e-012
1.46707e-012
8.66904e-013
1.20033e-012
1.26701e-012
9.33589e-013
1.20033e-012
1.06696e-012
1.20033e-012
1.00027e-012
7.33534e-013
8.66904e-013
4.00109e-013
1.13364e-012
6.66849e-013
1.20033e-012
8.00219e-013
7.33534e-013
1.13364e-012
7.33534e-013
1.06696e-012
1.13364e-012
8.00219e-013
8.00219e-013
1.20033e-012
7.33534e-013
1.00027e-012
6.66849e-013
1.20033e-012
7.33534e-013
1.40038e-012
7.33534e-013
1.00027e-012
1.00027e-012
9.33589e-013
1.13364e-012
1.00027e-012
1.00027e-012
9.33589e-013
7.33534e-013
6.66849e-013
7.33534e-013
1.06696e-012
4.66794e-013
8.00219e-013
8.66904e-013
4.66794e-013
8.66904e-013
6.00164e-013
8.00219e-013
4.00109e-013
9.33589e-013
4.00109e-013
6.00164e-013
6.00164e-013
3.33424e-013
6.00164e-013
1.3337e-013
6.66849e-013
4.00109e-013
6.66849e-013
4.00109e-013
4.66794e-013
4.00109e-013
7.33534e-013
5.33479e-013
8.00219e-013
5.33479e-013
8.00219e-013
9.33589e-013
6.66849e-013
8.66904e-013
4.66794e-013
8.00219e-013
8.00219e-013
5.33479e-013
7.33534e-013
8.00219e-013
6.66849e-013
6.66849e-013
8.00219e-013
4.66794e-013
9.33589e-013
6.00164e-013
6.66849e-013
5.33479e-013
1.06696e-012
5.33479e-013
8.66904e-013
6.00164e-013
1.50738e-012
1.26464e-012
9.72807e-013
1.28406e-012
1.48855e-012
1.19701e-012
1.46897e-012
1.4892e-012
1.26597e-012
1.12074e-012
1.33526e-012
1.03465e-012
1.26761e-012
1.35534e-012
1.07557e-012
9.88287e-013
9.40779e-013
5.28599e-013
6.34623e-013
5.2887e-013
7.57302e-013
1.21301e-012
8.24184e-013
1.03901e-012
7.16965e-013
1.19457e-012
9.31205e-013
1.26117e-012
9.50064e-013
9.81473e-013
4.294e-013
1.67005e-013
1.52146e-013
1.62238e-013
1.61049e-013
1.48912e-013
1.26191e-013
1.26195e-013
2.60405e-013
1.1892e-013
3.40862e-013
1.37035e-013
1.41011e-013
1.37101e-013
1.92636e-013
2.68988e-013
2.18479e-013
1.59208e-013
1.73253e-013
3.14527e-013
2.76204e-013
1.75655e-013
4.8507e-013
4.26151e-013
4.03365e-013
1.32116e-013
3.00728e-013
2.64088e-013
1.26985e-013
3.74547e-013
1.89982e-013
2.34314e-013
1.84181e-013
3.71608e-013
1.85675e-013
1.26143e-013
1.15542e-013
1.18522e-013
1.17834e-013
3.01199e-013
1.67588e-013
1.30925e-013
3.64513e-013
1.61927e-013
4.84577e-013
1.21907e-013
1.42284e-013
5.35007e-013
2.08768e-013
1.58935e-013
1.58384e-013
2.12764e-013
3.74757e-013
1.54382e-013
6.32569e-013
1.70116e-013
3.82135e-013
1.75318e-013
3.37055e-013
1.85333e-013
3.05523e-013
1.75318e-013
1.4757e-013
2.31331e-013
4.76228e-013
1.93033e-013
2.39615e-013
2.4036e-013
2.83925e-013
1.69075e-013
2.09573e-013
2.62752e-013
4.05089e-013
1.85555e-013
1.91839e-013
2.23725e-013
2.07357e-013
2.10058e-013
1.72501e-013
5.7897e-013
3.82869e-013
4.15455e-013
3.50129e-013
2.79501e-013
1.96937e-013
3.24776e-013
1.7992e-013
1.67146e-013
1.6767e-013
3.63539e-013
1.79911e-013
1.87678e-013
2.83235e-013
1.69673e-013
1.61676e-013
3.18639e-013
1.7147e-013
6.44762e-013
1.56809e-013
2.26104e-013
1.55324e-013
1.55295e-013
2.97207e-013
1.50442e-013
6.20769e-013
2.18763e-013
2.35685e-013
3.5531e-013
2.21509e-013
1.63905e-013
1.74126e-013
1.27055e-013
1.18522e-013
1.1468e-013
3.52284e-013
1.13469e-013
3.67044e-013
1.43936e-013
2.64288e-013
1.1913e-013
1.05589e-012
1.69929e-013
7.11782e-013
3.57101e-013
4.6932e-013
6.79341e-013
5.36511e-013
3.27066e-013
5.26124e-013
2.88847e-013
4.73276e-013
6.16431e-013
4.98015e-013
2.48844e-013
7.0696e-013
1.89217e-013
4.93753e-013
5.24093e-013
4.92807e-013
3.74717e-013
4.28374e-013
8.41945e-013
7.55406e-013
8.20898e-013
9.3077e-013
6.0339e-013
7.22698e-013
5.07158e-013
6.16786e-013
3.93598e-013
3.05027e-013
3.64497e-013
1.70909e-013
3.99398e-013
3.38606e-013
4.2858e-013
4.52848e-013
2.68859e-013
1.5463e-013
1.76156e-013
2.36885e-013
2.25394e-013
2.30671e-013
1.82016e-013
1.47455e-013
1.66573e-013
2.69594e-013
1.46249e-013
1.56809e-013
3.39675e-013
1.37138e-013
2.12793e-013
2.1942e-013
1.32048e-013
1.44792e-013
1.67756e-013
2.5807e-013
2.52866e-013
1.24922e-013
1.42838e-013
1.65932e-013
2.47152e-013
1.34094e-013
2.14366e-013
2.04348e-013
1.74544e-013
2.33957e-013
3.34828e-013
1.9961e-013
1.49267e-013
3.64101e-013
1.5709e-013
1.27764e-013
3.52744e-013
3.2699e-013
5.37487e-013
4.95315e-013
6.92525e-013
5.63145e-013
4.71702e-013
6.94745e-013
1.58766e-013
1.59113e-013
2.36233e-013
1.60359e-013
3.52121e-013
2.05501e-013
4.04344e-013
1.72955e-013
1.96865e-013
3.66777e-013
2.77935e-013
3.45781e-013
5.87561e-013
4.10708e-013
3.8621e-013
1.56428e-013
2.22643e-013
2.15989e-013
3.8989e-013
1.6483e-013
1.61798e-013
2.96476e-013
2.12526e-013
3.07964e-013
1.8714e-013
1.70548e-013
1.78984e-013
1.57554e-013
2.34176e-013
1.63344e-013
2.97511e-013
2.57894e-013
3.61134e-013
1.8483e-013
1.63717e-013
2.67866e-013
3.98002e-013
4.73349e-013
3.83665e-013
3.6909e-013
1.94247e-013
3.03581e-013
3.60315e-013
2.86017e-013
1.82714e-013
1.74728e-013
3.07916e-013
6.21537e-013
5.37237e-013
3.38304e-013
1.89748e-013
2.22209e-013
1.6106e-013
5.44382e-013
5.41199e-013
5.5227e-013
1.89167e-013
5.3296e-013
3.47794e-013
2.44357e-013
1.34781e-013
1.55454e-013
5.40815e-013
5.95262e-013
1.62301e-013
1.61157e-013
4.71482e-013
3.58852e-013
3.76561e-013
)
;

boundaryField
{
    inlet
    {
        type            calculated;
        value           nonuniform List<scalar> 2(3.55206e-013 3.6294e-013);
    }
    outlet
    {
        type            calculated;
        value           nonuniform List<scalar> 2(3.76561e-013 1.1913e-013);
    }
    bottom
    {
        type            symmetryPlane;
    }
    top
    {
        type            symmetryPlane;
    }
    obstacle
    {
        type            calculated;
        value           nonuniform List<scalar> 
102
(
4.65073e-013
1.50738e-012
1.93386e-012
1.66712e-012
1.20033e-012
1.60044e-012
1.66712e-012
1.26701e-012
1.86718e-012
8.00219e-013
1.93386e-012
1.13364e-012
1.13364e-012
1.46707e-012
8.66904e-013
1.20033e-012
1.26701e-012
9.33589e-013
1.20033e-012
1.06696e-012
1.20033e-012
1.00027e-012
7.33534e-013
8.66904e-013
4.00109e-013
1.13364e-012
6.66849e-013
1.20033e-012
8.00219e-013
7.33534e-013
1.13364e-012
7.33534e-013
1.06696e-012
1.13364e-012
8.00219e-013
8.00219e-013
1.20033e-012
7.33534e-013
1.00027e-012
6.66849e-013
1.20033e-012
7.33534e-013
1.40038e-012
7.33534e-013
1.00027e-012
1.00027e-012
9.33589e-013
1.13364e-012
1.00027e-012
1.00027e-012
9.33589e-013
7.33534e-013
6.66849e-013
7.33534e-013
1.06696e-012
4.66794e-013
8.00219e-013
8.66904e-013
4.66794e-013
8.66904e-013
6.00164e-013
8.00219e-013
4.00109e-013
9.33589e-013
4.00109e-013
6.00164e-013
6.00164e-013
3.33424e-013
6.00164e-013
1.3337e-013
6.66849e-013
4.00109e-013
6.66849e-013
4.00109e-013
4.66794e-013
4.00109e-013
7.33534e-013
5.33479e-013
8.00219e-013
5.33479e-013
8.00219e-013
9.33589e-013
6.66849e-013
8.66904e-013
4.66794e-013
8.00219e-013
8.00219e-013
5.33479e-013
7.33534e-013
8.00219e-013
6.66849e-013
6.66849e-013
8.00219e-013
4.66794e-013
9.33589e-013
6.00164e-013
6.66849e-013
5.33479e-013
1.06696e-012
5.33479e-013
8.66904e-013
6.00164e-013
)
;
    }
    defaultFaces
    {
        type            empty;
    }
}


// ************************************************************************* //
