/*--------------------------------*- C++ -*----------------------------------*\
| =========                 |                                                 |
| \\      /  F ield         | OpenFOAM: The Open Source CFD Toolbox           |
|  \\    /   O peration     | Version:  5.x                                   |
|   \\  /    A nd           | Web:      www.OpenFOAM.org                      |
|    \\/     M anipulation  |                                                 |
\*---------------------------------------------------------------------------*/
/*   Windows 32 and 64 bit porting by blueCAPE: http://www.bluecape.com.pt   *\
|  Based on Windows porting (2.0.x v4) by Symscape: http://www.symscape.com   |
\*---------------------------------------------------------------------------*/
FoamFile
{
    version     2.0;
    format      ascii;
    class       volVectorField;
    location    "0.002";
    object      U;
}
// * * * * * * * * * * * * * * * * * * * * * * * * * * * * * * * * * * * * * //

dimensions      [0 1 -1 0 0 0 0];

internalField   nonuniform List<vector> 
1000
(
(-2.91746e-014 3.61765e-013 0)
(5.95162e-013 3.74894e-013 0)
(5.30978e-013 3.11439e-013 0)
(2.91746e-013 3.13627e-013 0)
(6.94355e-013 3.54471e-013 0)
(2.27562e-013 3.19462e-013 0)
(5.89327e-013 3.68329e-013 0)
(2.68406e-013 3.15086e-013 0)
(6.06832e-013 3.80729e-013 0)
(5.48482e-013 3.7927e-013 0)
(3.15086e-013 3.74164e-013 0)
(3.9094e-013 3.87293e-013 0)
(1.07946e-012 4.50018e-013 0)
(6.18502e-013 3.76352e-013 0)
(2.85911e-013 4.30325e-013 0)
(7.99384e-013 4.08444e-013 0)
(-1.05029e-013 4.52206e-013 0)
(-9.70299e-028 4.52936e-013 0)
(-1.75048e-014 4.60229e-013 0)
(3.676e-013 4.85757e-013 0)
(3.7927e-013 4.97427e-013 0)
(-6.47676e-013 4.9378e-013 0)
(2.21727e-013 5.12744e-013 0)
(4.72629e-013 4.76275e-013 0)
(1.44706e-012 5.06909e-013 0)
(1.73297e-012 4.66064e-013 0)
(1.4704e-012 4.78463e-013 0)
(1.28952e-012 4.1355e-013 0)
(8.86908e-013 4.04798e-013 0)
(8.57733e-013 4.04068e-013 0)
(1.1028e-012 3.87293e-013 0)
(5.77657e-013 3.48636e-013 0)
(6.41841e-014 3.74164e-013 0)
(1.34203e-013 3.49366e-013 0)
(1.80883e-013 3.94586e-013 0)
(-1.22533e-013 3.61765e-013 0)
(6.47676e-013 3.79999e-013 0)
(-1.34203e-013 4.10633e-013 0)
(-1.69213e-013 3.89481e-013 0)
(1.22533e-013 4.00421e-013 0)
(-2.85911e-013 3.98233e-013 0)
(8.75238e-013 4.51477e-013 0)
(-8.16889e-014 3.77082e-013 0)
(-7.5854e-014 4.3689e-013 0)
(-1.34203e-013 3.94586e-013 0)
(3.50095e-014 4.07715e-013 0)
(4.49289e-013 3.63953e-013 0)
(-3.09251e-013 3.82187e-013 0)
(7.17695e-013 3.74894e-013 0)
(3.50095e-014 3.83646e-013 0)
(5.77657e-013 3.676e-013 0)
(-2.56736e-013 3.54471e-013 0)
(-8.51898e-013 3.31861e-013 0)
(-2.74241e-013 3.55201e-013 0)
(-6.18502e-013 3.7854e-013 0)
(-8.69403e-013 3.60306e-013 0)
(-7.352e-013 4.43454e-013 0)
(-7.64375e-013 3.7927e-013 0)
(-8.16889e-013 4.3616e-013 0)
(-5.60152e-013 4.66794e-013 0)
(-5.07638e-013 4.67523e-013 0)
(-3.4426e-013 5.2879e-013 0)
(-2.62571e-013 4.99615e-013 0)
(-1.98387e-013 5.64529e-013 0)
(-5.25143e-014 5.81304e-013 0)
(-3.03416e-013 5.95162e-013 0)
(-1.45873e-013 6.42571e-013 0)
(1.92552e-013 6.22148e-013 0)
(9.91936e-014 6.6664e-013 0)
(4.14279e-013 6.56429e-013 0)
(8.16889e-014 6.49135e-013 0)
(1.57543e-013 6.58617e-013 0)
(-2.39232e-013 6.49864e-013 0)
(5.13473e-013 6.52052e-013 0)
(5.65987e-013 6.51323e-013 0)
(5.95162e-013 6.23607e-013 0)
(5.30978e-013 6.33818e-013 0)
(1.05029e-013 5.60882e-013 0)
(7.0019e-014 6.06832e-013 0)
(4.90133e-013 5.79845e-013 0)
(4.02609e-013 5.11285e-013 0)
(9.33587e-014 5.64529e-013 0)
(5.36813e-013 5.58694e-013 0)
(2.45067e-013 5.58694e-013 0)
(7.81879e-013 5.44836e-013 0)
(2.68406e-013 4.98156e-013 0)
(4.14279e-013 5.11285e-013 0)
(1.69213e-013 4.78463e-013 0)
(4.25949e-013 4.98156e-013 0)
(8.34394e-013 4.45642e-013 0)
(6.71016e-013 4.52206e-013 0)
(7.52705e-013 4.2522e-013 0)
(7.87714e-013 4.19385e-013 0)
(4.60959e-013 3.99692e-013 0)
(8.69403e-013 4.05527e-013 0)
(1.237e-012 4.01151e-013 0)
(2.10057e-013 3.86563e-013 0)
(3.676e-013 3.77811e-013 0)
(1.28368e-013 3.70517e-013 0)
(1.80883e-013 3.71976e-013 0)
(1.51708e-013 3.53742e-013 0)
(-1.57543e-013 3.77082e-013 0)
(-4.55124e-013 3.3259e-013 0)
(4.08444e-013 3.39884e-013 0)
(4.55124e-013 3.29673e-013 0)
(3.03416e-013 3.13627e-013 0)
(4.25949e-013 3.18733e-013 0)
(2.27562e-013 2.92475e-013 0)
(-2.27562e-013 3.12898e-013 0)
(2.21727e-013 2.77888e-013 0)
(-5.48482e-013 2.58925e-013 0)
(-4.84298e-013 2.74241e-013 0)
(-5.36813e-013 2.93934e-013 0)
(-6.30171e-013 2.69136e-013 0)
(-1.34203e-013 3.03416e-013 0)
(-2.74241e-013 2.72783e-013 0)
(-2.45067e-013 3.12168e-013 0)
(-2.91746e-013 2.80806e-013 0)
(-6.71016e-013 3.0998e-013 0)
(-4.84298e-013 3.3259e-013 0)
(-5.48482e-013 3.23109e-013 0)
(-2.97581e-013 3.3259e-013 0)
(-3.50095e-013 3.39884e-013 0)
(-9.39422e-013 3.7854e-013 0)
(-5.65987e-013 3.82917e-013 0)
(-1.17865e-012 4.12091e-013 0)
(-1.30119e-012 4.77005e-013 0)
(-1.25451e-012 4.85757e-013 0)
(-1.1028e-012 5.15661e-013 0)
(-5.60152e-013 5.35354e-013 0)
(-3.85105e-013 5.30978e-013 0)
(-1.10863e-013 5.50671e-013 0)
(2.21727e-013 5.47024e-013 0)
(-2.33397e-014 5.63799e-013 0)
(1.16698e-014 5.64529e-013 0)
(-4.14279e-013 5.36813e-013 0)
(4.02609e-013 5.61611e-013 0)
(1.77965e-012 5.50671e-013 0)
(6.06832e-012 5.35354e-013 0)
(2.35614e-011 5.29519e-013 0)
(8.51432e-011 5.12014e-013 0)
(3.05621e-010 5.61611e-013 0)
(1.07245e-009 5.59423e-013 0)
(3.69488e-009 5.58694e-013 0)
(1.24843e-008 5.65987e-013 0)
(4.13315e-008 5.82763e-013 0)
(1.34008e-007 5.34625e-013 0)
(4.25242e-007 5.47024e-013 0)
(1.31974e-006 5.37542e-013 0)
(4.00275e-006 5.26602e-013 0)
(1.18548e-005 4.42725e-013 0)
(3.42539e-005 4.3689e-013 0)
(9.64699e-005 3.98233e-013 0)
(0.000264538 3.70517e-013 0)
(0.000705515 3.06333e-013 0)
(0.00182769 2.85182e-013 0)
(0.00459279 2.15893e-013 0)
(0.011178 1.66296e-013 0)
(0.026304 1.22535e-013 0)
(0.0597342 6.78364e-014 0)
(0.130632 1.02222e-014 0)
(0.274475 -3.79073e-014 0)
(0.552708 -8.38308e-014 0)
(1.06384 -1.19565e-013 0)
(1.95199 -1.71925e-013 0)
(3.40565 -2.09172e-013 0)
(5.63779 -2.3328e-013 0)
(8.84105 -2.33055e-013 0)
(13.1198 -2.69271e-013 0)
(18.431 -2.82672e-013 0)
(24.6098 -2.91334e-013 0)
(31.4641 -3.0798e-013 0)
(38.8362 -3.00271e-013 0)
(46.6092 -3.43695e-013 0)
(54.6974 -3.52342e-013 0)
(63.0367 -3.47138e-013 0)
(71.5782 -3.61232e-013 0)
(80.2835 -3.61776e-013 0)
(89.1215 -3.81913e-013 0)
(98.0664 -3.64463e-013 0)
(107.096 -3.55737e-013 0)
(116.19 -3.62573e-013 0)
(125.332 -3.75551e-013 0)
(134.501 -3.89407e-013 0)
(143.691 -3.95646e-013 0)
(152.863 -4.09322e-013 0)
(162.047 -3.99986e-013 0)
(171.154 -3.89271e-013 0)
(180.248 -3.98147e-013 0)
(189.265 -4.03939e-013 0)
(198.168 -3.99318e-013 0)
(206.996 -3.80056e-013 0)
(215.679 -3.6082e-013 0)
(224.165 -3.44109e-013 0)
(232.463 -3.32467e-013 0)
(240.525 -3.23017e-013 0)
(248.266 -3.09508e-013 0)
(255.631 -2.93454e-013 0)
(262.573 -2.81556e-013 0)
(269.005 -2.71657e-013 0)
(274.817 -2.59722e-013 0)
(279.906 -2.53211e-013 0)
(284.222 -2.50389e-013 0)
(287.69 -2.55798e-013 0)
(290.341 -2.59888e-013 0)
(292.148 -2.60598e-013 0)
(293.137 -2.61135e-013 0)
(293.636 -2.60374e-013 0)
(293.856 -2.54311e-013 0)
(293.924 -2.51413e-013 0)
(293.902 -2.54106e-013 0)
(293.693 -2.63106e-013 0)
(293.335 -2.76413e-013 0)
(292.969 -2.90708e-013 0)
(292.67 -3.06298e-013 0)
(292.546 -3.18762e-013 0)
(292.548 -3.325e-013 0)
(292.602 -3.43679e-013 0)
(292.8 -3.52929e-013 0)
(293.244 -3.64993e-013 0)
(293.354 -3.8706e-013 0)
(292.945 -4.18155e-013 0)
(292.65 -4.56282e-013 0)
(292.634 -4.95137e-013 0)
(292.798 -5.34581e-013 0)
(292.969 -5.74535e-013 0)
(293.12 -6.18845e-013 0)
(293.243 -6.72151e-013 0)
(293.317 -7.35631e-013 0)
(293.322 -7.88252e-013 0)
(293.26 -8.13712e-013 0)
(293.171 -8.23202e-013 0)
(293.106 -8.31696e-013 0)
(293.034 -8.39297e-013 0)
(292.879 -8.54019e-013 0)
(292.644 -8.80152e-013 0)
(292.327 -9.13431e-013 0)
(291.864 -9.49397e-013 0)
(291.149 -9.8599e-013 0)
(289.926 -1.0049e-012 0)
(287.633 -1.01246e-012 0)
(283.24 -9.90265e-013 0)
(274.342 -1.03005e-012 0)
(252.951 -9.8648e-013 0)
(191.172 -8.6011e-013 0)
(87.6509 -5.53676e-013 0)
(22.7441 -3.64465e-013 0)
(4.61048 -3.03134e-013 0)
(0.832643 -2.78654e-013 0)
(0.144632 -2.74241e-013 0)
(0.0249289 -2.8117e-013 0)
(0.00429149 -2.66219e-013 0)
(0.000738703 -2.83723e-013 0)
(0.000127156 -2.61478e-013 0)
(2.18863e-005 -2.16622e-013 0)
(3.76626e-006 -2.04587e-013 0)
(6.47848e-007 -1.88906e-013 0)
(1.11369e-007 -1.64837e-013 0)
(1.91278e-008 -2.05317e-013 0)
(3.28152e-009 -1.61555e-013 0)
(5.6247e-010 -1.61555e-013 0)
(9.61946e-011 -2.06411e-013 0)
(1.70438e-011 -2.11516e-013 0)
(3.14503e-012 -2.47984e-013 0)
(8.98579e-013 -2.34856e-013 0)
(1.16699e-013 -2.26103e-013 0)
(5.13474e-013 -2.34856e-013 0)
(7.9355e-013 -2.33397e-013 0)
(7.9355e-013 -2.49808e-013 0)
(5.36813e-013 -2.60748e-013 0)
(5.13474e-013 -2.62936e-013 0)
(4.55124e-013 -2.97217e-013 0)
(9.51093e-013 -2.83359e-013 0)
(7.9355e-013 -3.15451e-013 0)
(7.70211e-013 -3.08887e-013 0)
(7.29366e-013 -3.28215e-013 0)
(3.7927e-013 -3.20556e-013 0)
(7.23531e-013 -3.40614e-013 0)
(8.75239e-013 -3.31132e-013 0)
(6.76852e-013 -3.55201e-013 0)
(2.74242e-013 -3.66871e-013 0)
(1.92553e-013 -3.85105e-013 0)
(-9.33589e-014 -3.97505e-013 0)
(-4.3762e-013 -4.2048e-013 0)
(-6.36007e-013 -4.11727e-013 0)
(-3.03416e-013 -4.13551e-013 0)
(-3.15086e-013 -4.10268e-013 0)
(-1.16699e-013 -4.28138e-013 0)
(-1.40038e-013 -4.42725e-013 0)
(-8.57734e-013 -4.58407e-013 0)
(-9.91938e-014 -4.33243e-013 0)
(-1.92553e-013 -4.66065e-013 0)
(-3.03416e-013 -4.62783e-013 0)
(1.05029e-013 -4.9451e-013 0)
(-3.73435e-013 -5.02169e-013 0)
(-6.00998e-013 -5.07639e-013 0)
(-5.36813e-013 -4.79923e-013 0)
(-2.10057e-013 -4.77735e-013 0)
(-1.92553e-013 -4.55124e-013 0)
(-1.63378e-013 -4.35432e-013 0)
(3.33424e-014 3.53638e-013 0)
(2.00054e-014 3.56347e-013 0)
(-7.73544e-013 3.29048e-013 0)
(3.13419e-013 3.229e-013 0)
(1.53375e-013 3.35404e-013 0)
(8.06886e-013 3.07063e-013 0)
(1.26701e-012 3.52283e-013 0)
(1.3337e-012 3.22379e-013 0)
(1.38704e-012 3.75415e-013 0)
(8.20223e-013 3.47386e-013 0)
(1.26701e-012 3.79687e-013 0)
(1.52708e-012 3.77082e-013 0)
(1.20699e-012 4.06152e-013 0)
(9.93604e-013 3.80624e-013 0)
(1.54709e-012 4.16884e-013 0)
(1.24701e-012 4.05631e-013 0)
(8.66902e-013 4.29075e-013 0)
(5.80158e-013 4.35014e-013 0)
(8.26892e-013 4.40328e-013 0)
(1.1003e-012 4.54811e-013 0)
(1.06696e-012 4.55749e-013 0)
(1.01361e-012 4.75025e-013 0)
(6.20169e-013 4.98573e-013 0)
(1.20033e-013 4.87633e-013 0)
(2.26728e-013 4.86799e-013 0)
(3.73435e-013 4.55332e-013 0)
(-2.40065e-013 4.4783e-013 0)
(-4.93468e-013 4.148e-013 0)
(3.33424e-014 4.07715e-013 0)
(2.33397e-013 3.97504e-013 0)
(-7.86881e-013 3.89377e-013 0)
(-6.26837e-013 3.48116e-013 0)
(1.93386e-013 3.5468e-013 0)
(4.93468e-013 3.52804e-013 0)
(7.86881e-013 3.6635e-013 0)
(-4.66794e-014 3.72393e-013 0)
(9.93604e-013 3.65829e-013 0)
(3.60098e-013 3.72706e-013 0)
(8.3356e-013 3.78957e-013 0)
(6.26837e-013 4.02297e-013 0)
(1.46707e-013 3.92503e-013 0)
(9.60261e-013 4.16676e-013 0)
(-2.73408e-013 3.91773e-013 0)
(-1.96016e-026 4.14384e-013 0)
(-1.3337e-014 3.90419e-013 0)
(-5.13473e-013 4.17509e-013 0)
(-3.26756e-013 3.80833e-013 0)
(-2.40065e-013 3.95733e-013 0)
(-4.00109e-013 3.78853e-013 0)
(-2.86745e-013 3.74789e-013 0)
(-6.86853e-013 3.70934e-013 0)
(-1.20033e-013 3.51554e-013 0)
(-6.33506e-013 3.56764e-013 0)
(2.13391e-013 3.53742e-013 0)
(-3.66766e-013 3.8052e-013 0)
(3.86772e-013 3.50408e-013 0)
(6.00163e-013 4.17926e-013 0)
(4.46788e-013 3.87189e-013 0)
(1.49374e-012 4.40745e-013 0)
(1.54042e-012 4.52102e-013 0)
(1.74714e-012 4.87007e-013 0)
(1.6071e-012 5.07117e-013 0)
(1.62044e-012 5.37125e-013 0)
(1.37371e-012 5.54213e-013 0)
(1.76048e-012 5.80158e-013 0)
(1.4804e-012 5.91828e-013 0)
(1.34036e-012 6.35902e-013 0)
(1.21366e-012 6.23086e-013 0)
(6.93522e-013 6.62263e-013 0)
(2.60071e-013 6.3684e-013 0)
(5.06804e-013 6.59971e-013 0)
(2.53402e-013 6.47989e-013 0)
(-4.33451e-013 6.65598e-013 0)
(-6.135e-013 6.39653e-013 0)
(-2.26728e-013 6.37048e-013 0)
(-5.20141e-013 6.1746e-013 0)
(-7.0019e-013 6.05686e-013 0)
(-6.93522e-013 5.9214e-013 0)
(-9.33587e-014 5.83179e-013 0)
(-7.33533e-013 5.90369e-013 0)
(-1.13364e-013 5.57235e-013 0)
(-2.73408e-013 5.70363e-013 0)
(-1.3337e-014 5.55776e-013 0)
(-1.60044e-013 5.56506e-013 0)
(-1.09363e-012 5.42335e-013 0)
(-6.26837e-013 5.10035e-013 0)
(-9.80267e-013 5.21809e-013 0)
(-8.20223e-013 4.66377e-013 0)
(-1.44993e-026 4.94822e-013 0)
(-5.53484e-013 4.68148e-013 0)
(-3.40092e-013 4.52415e-013 0)
(-4.73462e-013 4.37932e-013 0)
(-5.20141e-013 4.31263e-013 0)
(-1.86717e-013 4.0313e-013 0)
(1.53375e-013 4.13654e-013 0)
(-2.66739e-013 3.82917e-013 0)
(-2.93413e-013 3.74894e-013 0)
(-2.53402e-013 3.71976e-013 0)
(6.86853e-013 3.62182e-013 0)
(-2.06723e-013 3.84792e-013 0)
(-4.46788e-013 3.51554e-013 0)
(-1.12697e-012 3.67704e-013 0)
(-1.43372e-012 3.36029e-013 0)
(-2.06723e-013 3.35925e-013 0)
(-3.26756e-013 3.26547e-013 0)
(-4.66794e-014 3.12064e-013 0)
(-3.60098e-013 3.21546e-013 0)
(-2.60071e-013 2.82889e-013 0)
(-5.06804e-013 3.12272e-013 0)
(-7.20196e-013 2.81639e-013 0)
(-8.40228e-013 2.79138e-013 0)
(-3.73435e-013 2.79034e-013 0)
(-8.26892e-013 2.80806e-013 0)
(-2.66739e-014 2.78722e-013 0)
(-2.66739e-014 2.88203e-013 0)
(3.40092e-013 2.79868e-013 0)
(9.33587e-014 3.12377e-013 0)
(8.00218e-014 2.87161e-013 0)
(2.80076e-013 3.14148e-013 0)
(3.46761e-013 3.27797e-013 0)
(3.33424e-013 3.32799e-013 0)
(3.40092e-013 3.45302e-013 0)
(8.40228e-013 3.48428e-013 0)
(5.93495e-013 3.79687e-013 0)
(1.21366e-012 3.80624e-013 0)
(1.22033e-012 4.18968e-013 0)
(1.70046e-012 4.50122e-013 0)
(1.14698e-012 4.83882e-013 0)
(8.3356e-013 5.12744e-013 0)
(4.86799e-013 5.26706e-013 0)
(-1.60044e-013 5.31915e-013 0)
(-1.40038e-013 5.41293e-013 0)
(5.86826e-013 5.39834e-013 0)
(2.80076e-013 5.44731e-013 0)
(1.26701e-013 5.44836e-013 0)
(1.80049e-013 5.4619e-013 0)
(1.93386e-013 5.70155e-013 0)
(1.14031e-012 5.34208e-013 0)
(5.8816e-012 5.5786e-013 0)
(2.25795e-011 5.33999e-013 0)
(8.51498e-011 5.2483e-013 0)
(3.05176e-010 5.35875e-013 0)
(1.07264e-009 5.1066e-013 0)
(3.69561e-009 5.3452e-013 0)
(1.2485e-008 5.40043e-013 0)
(4.13315e-008 5.60882e-013 0)
(1.34008e-007 5.42022e-013 0)
(4.25241e-007 5.32645e-013 0)
(1.31974e-006 5.18474e-013 0)
(4.00275e-006 4.98781e-013 0)
(1.18548e-005 4.60229e-013 0)
(3.42539e-005 4.35743e-013 0)
(9.64699e-005 3.74789e-013 0)
(0.000264538 3.39988e-013 0)
(0.000705515 2.90704e-013 0)
(0.00182769 2.60904e-013 0)
(0.00459279 2.00159e-013 0)
(0.011178 1.58273e-013 0)
(0.026304 1.19513e-013 0)
(0.0597342 7.6275e-014 0)
(0.130632 1.59542e-014 0)
(0.274475 -2.91564e-014 0)
(0.552708 -8.60065e-014 0)
(1.06384 -1.26747e-013 0)
(1.95199 -1.81592e-013 0)
(3.40565 -2.00785e-013 0)
(5.63779 -2.38442e-013 0)
(8.84105 -2.47813e-013 0)
(13.1198 -2.74823e-013 0)
(18.431 -2.74707e-013 0)
(24.6098 -2.89519e-013 0)
(31.4641 -2.98299e-013 0)
(38.8362 -3.06725e-013 0)
(46.6092 -3.38535e-013 0)
(54.6974 -3.41739e-013 0)
(63.0367 -3.382e-013 0)
(71.5782 -3.55963e-013 0)
(80.2835 -3.6343e-013 0)
(89.1215 -3.86361e-013 0)
(98.0664 -3.66383e-013 0)
(107.096 -3.5492e-013 0)
(116.19 -3.61369e-013 0)
(125.332 -3.73317e-013 0)
(134.501 -3.85313e-013 0)
(143.691 -3.93173e-013 0)
(152.863 -4.06644e-013 0)
(162.047 -3.97025e-013 0)
(171.154 -3.88139e-013 0)
(180.248 -3.96302e-013 0)
(189.265 -4.01425e-013 0)
(198.168 -3.96976e-013 0)
(206.996 -3.7866e-013 0)
(215.679 -3.59612e-013 0)
(224.165 -3.43986e-013 0)
(232.463 -3.32172e-013 0)
(240.525 -3.24889e-013 0)
(248.266 -3.10489e-013 0)
(255.631 -2.93865e-013 0)
(262.573 -2.82088e-013 0)
(269.005 -2.73794e-013 0)
(274.817 -2.62297e-013 0)
(279.906 -2.56098e-013 0)
(284.222 -2.52262e-013 0)
(287.69 -2.5725e-013 0)
(290.341 -2.60995e-013 0)
(292.148 -2.62315e-013 0)
(293.137 -2.62142e-013 0)
(293.636 -2.60584e-013 0)
(293.856 -2.54669e-013 0)
(293.924 -2.5128e-013 0)
(293.902 -2.53903e-013 0)
(293.693 -2.62424e-013 0)
(293.335 -2.75538e-013 0)
(292.969 -2.89703e-013 0)
(292.67 -3.05143e-013 0)
(292.546 -3.18639e-013 0)
(292.548 -3.31236e-013 0)
(292.602 -3.42471e-013 0)
(292.8 -3.53453e-013 0)
(293.244 -3.65687e-013 0)
(293.354 -3.87578e-013 0)
(292.945 -4.197e-013 0)
(292.65 -4.58364e-013 0)
(292.634 -4.96524e-013 0)
(292.798 -5.3694e-013 0)
(292.969 -5.76667e-013 0)
(293.12 -6.21434e-013 0)
(293.243 -6.74119e-013 0)
(293.317 -7.38009e-013 0)
(293.322 -7.89384e-013 0)
(293.26 -8.14814e-013 0)
(293.171 -8.24806e-013 0)
(293.106 -8.33891e-013 0)
(293.034 -8.42428e-013 0)
(292.879 -8.5667e-013 0)
(292.644 -8.82337e-013 0)
(292.327 -9.15427e-013 0)
(291.864 -9.51511e-013 0)
(291.149 -9.87481e-013 0)
(289.926 -1.00696e-012 0)
(287.633 -1.01437e-012 0)
(283.24 -9.93721e-013 0)
(274.342 -1.03565e-012 0)
(252.951 -9.89643e-013 0)
(191.172 -8.60097e-013 0)
(87.6509 -5.58977e-013 0)
(22.7441 -3.7097e-013 0)
(4.61048 -3.14308e-013 0)
(0.832643 -2.97962e-013 0)
(0.144632 -2.83415e-013 0)
(0.0249289 -2.94454e-013 0)
(0.00429149 -2.70908e-013 0)
(0.000738703 -2.79503e-013 0)
(0.000127156 -2.55174e-013 0)
(2.18863e-005 -2.45796e-013 0)
(3.76627e-006 -2.22248e-013 0)
(6.4785e-007 -2.10943e-013 0)
(1.11369e-007 -1.92813e-013 0)
(1.91281e-008 -1.98856e-013 0)
(3.2812e-009 -1.91198e-013 0)
(5.61714e-010 -1.98909e-013 0)
(9.56795e-011 -2.198e-013 0)
(1.60177e-011 -2.07869e-013 0)
(2.49402e-012 -2.36627e-013 0)
(2.80077e-013 -2.35377e-013 0)
(1.66712e-013 -2.36523e-013 0)
(-2.00055e-014 -2.44702e-013 0)
(4.13446e-013 -2.49443e-013 0)
(-2.00055e-013 -2.58196e-013 0)
(-2.13392e-013 -2.72835e-013 0)
(-3.40093e-013 -2.72731e-013 0)
(-2.6674e-013 -2.93049e-013 0)
(-4.26783e-013 -2.94455e-013 0)
(9.33589e-014 -3.2587e-013 0)
(4.868e-013 -3.09824e-013 0)
(7.33534e-014 -3.33372e-013 0)
(8.00219e-014 -3.29517e-013 0)
(4.13446e-013 -3.44261e-013 0)
(-2.00055e-014 -3.37436e-013 0)
(-4.868e-013 -3.65152e-013 0)
(-4.93468e-013 -3.58796e-013 0)
(-9.53594e-013 -3.83647e-013 0)
(-1.41372e-012 -3.92659e-013 0)
(-9.53594e-013 -4.16833e-013 0)
(-1.23367e-012 -4.15999e-013 0)
(-3.93441e-013 -4.24439e-013 0)
(-8.13556e-013 -4.20896e-013 0)
(-6.86854e-013 -4.34754e-013 0)
(-6.26838e-013 -4.32306e-013 0)
(-8.93578e-013 -4.46164e-013 0)
(-1.31369e-012 -4.35119e-013 0)
(-1.34037e-012 -4.6867e-013 0)
(-1.207e-012 -4.65283e-013 0)
(-1.15365e-012 -4.95187e-013 0)
(-8.13556e-013 -4.95969e-013 0)
(-2.60071e-013 -5.12692e-013 0)
(4.46789e-013 -4.90915e-013 0)
(7.20197e-013 -4.92583e-013 0)
(1.21367e-012 -4.58302e-013 0)
(1.06029e-012 -4.54291e-013 0)
(1.93386e-012 -9.45023e-026 0)
(1.66712e-012 -1.27034e-038 0)
(1.20033e-012 -1.20869e-051 0)
(1.60044e-012 -9.03786e-065 0)
(1.66712e-012 -5.77377e-078 0)
(1.26701e-012 -3.17685e-091 0)
(1.86718e-012 -1.52683e-104 0)
(8.00219e-013 -6.67356e-118 0)
(1.93386e-012 -2.57965e-131 0)
(1.13364e-012 -8.84846e-145 0)
(1.13364e-012 -2.73745e-158 0)
(1.46707e-012 -7.70881e-172 0)
(8.66904e-013 -2.10245e-185 0)
(1.20033e-012 -5.25835e-199 0)
(1.26701e-012 -1.28159e-212 0)
(9.33589e-013 -2.84058e-226 0)
(1.20033e-012 -6.20378e-240 0)
(1.06696e-012 -1.27587e-253 0)
(1.20033e-012 -2.56215e-267 0)
(1.00027e-012 -5.28304e-281 0)
(7.33534e-013 -1.02562e-294 0)
(8.66904e-013 -1.85401e-308 0)
(4.00109e-013 -3.35965e-322 0)
(1.13364e-012 0 0)
(6.66849e-013 0 0)
(1.20033e-012 0 0)
(8.00219e-013 0 0)
(7.33534e-013 0 0)
(1.13364e-012 0 0)
(7.33534e-013 0 0)
(1.06696e-012 0 0)
(1.13364e-012 0 0)
(8.00219e-013 0 0)
(8.00219e-013 0 0)
(1.20033e-012 0 0)
(7.33534e-013 0 0)
(1.00027e-012 0 0)
(6.66849e-013 0 0)
(1.20033e-012 0 0)
(7.33534e-013 0 0)
(1.40038e-012 0 0)
(7.33534e-013 0 0)
(1.00027e-012 0 0)
(1.00027e-012 0 0)
(9.33589e-013 0 0)
(1.13364e-012 0 0)
(1.00027e-012 0 0)
(1.00027e-012 0 0)
(9.33589e-013 0 0)
(7.33534e-013 0 0)
(6.66849e-013 0 0)
(7.33534e-013 0 0)
(1.06696e-012 0 0)
(4.66794e-013 0 0)
(8.00219e-013 0 0)
(8.66904e-013 0 0)
(4.66794e-013 0 0)
(8.66904e-013 0 0)
(6.00164e-013 0 0)
(8.00219e-013 0 0)
(4.00109e-013 0 0)
(9.33589e-013 0 0)
(4.00109e-013 0 0)
(6.00164e-013 0 0)
(6.00164e-013 0 0)
(3.33424e-013 0 0)
(6.00164e-013 0 0)
(1.3337e-013 0 0)
(6.66849e-013 0 0)
(4.00109e-013 0 0)
(6.66849e-013 0 0)
(4.00109e-013 0 0)
(4.66794e-013 0 0)
(4.00109e-013 0 0)
(7.33534e-013 0 0)
(5.33479e-013 0 0)
(8.00219e-013 0 0)
(5.33479e-013 0 0)
(8.00219e-013 0 0)
(9.33589e-013 0 0)
(6.66849e-013 0 0)
(8.66904e-013 1.14852e-302 0)
(4.66794e-013 4.29212e-287 0)
(8.00219e-013 5.41755e-272 0)
(8.00219e-013 2.94962e-256 0)
(5.33479e-013 3.66963e-241 0)
(7.33534e-013 5.11078e-226 0)
(8.00219e-013 9.79681e-211 0)
(6.66849e-013 9.88174e-196 0)
(6.66849e-013 6.34106e-181 0)
(8.00219e-013 3.64322e-166 0)
(4.66794e-013 1.92463e-151 0)
(9.33589e-013 8.90184e-137 0)
(6.00164e-013 6.5439e-122 0)
(6.66849e-013 1.11652e-106 0)
(5.33479e-013 1.66202e-091 0)
(1.06696e-012 1.4272e-076 0)
(5.33479e-013 1.61145e-061 0)
(8.66904e-013 2.47452e-046 0)
(6.00164e-013 4.74978e-031 0)
(1.50736e-012 -8.50927e-015 0)
(1.26423e-012 -3.22137e-014 0)
(9.72488e-013 -2.492e-014 0)
(1.28368e-012 -3.09981e-014 0)
(1.48791e-012 -4.3762e-014 0)
(1.19616e-012 -4.49776e-014 0)
(1.46846e-012 -3.88995e-014 0)
(1.48791e-012 -6.19961e-014 0)
(1.26423e-012 -6.62508e-014 0)
(1.11836e-012 -7.29366e-014 0)
(1.33231e-012 -8.87395e-014 0)
(1.03084e-012 -8.87395e-014 0)
(1.26423e-012 -9.23864e-014 0)
(1.35176e-012 -9.84644e-014 0)
(1.06974e-012 -1.11836e-013 0)
(9.82213e-013 -1.09405e-013 0)
(9.33589e-013 -1.16091e-013 0)
(5.15419e-013 -1.17306e-013 0)
(6.22392e-013 -1.23992e-013 0)
(5.15419e-013 -1.18522e-013 0)
(7.48816e-013 -1.13052e-013 0)
(1.20589e-012 -1.31286e-013 0)
(8.1689e-013 -1.09405e-013 0)
(1.03084e-012 -1.3007e-013 0)
(7.09916e-013 -1.00288e-013 0)
(1.18644e-012 -1.39187e-013 0)
(9.23864e-013 -1.16699e-013 0)
(1.25451e-012 -1.29462e-013 0)
(9.43313e-013 -1.13052e-013 0)
(9.72488e-013 -1.32502e-013 0)
(4.08445e-013 -1.32502e-013 0)
(1.06974e-013 -1.28247e-013 0)
(-3.88995e-014 -1.47089e-013 0)
(-1.94498e-014 -1.61068e-013 0)
(7.7799e-014 -1.41011e-013 0)
(6.22e-028 -1.48912e-013 0)
(-9.72488e-015 -1.25816e-013 0)
(-2.91746e-014 -1.22777e-013 0)
(-2.33397e-013 -1.15483e-013 0)
(9.72488e-015 -1.18522e-013 0)
(3.20921e-013 -1.14875e-013 0)
(-5.83493e-014 -1.23992e-013 0)
(-3.95325e-029 -1.41011e-013 0)
(9.72488e-015 -1.36756e-013 0)
(-1.45873e-013 -1.25816e-013 0)
(2.33397e-013 -1.33717e-013 0)
(1.65323e-013 -1.42834e-013 0)
(3.88995e-014 -1.54382e-013 0)
(8.75239e-014 -1.4952e-013 0)
(-2.72297e-013 -1.57422e-013 0)
(2.33397e-013 -1.47697e-013 0)
(-1.16699e-013 -1.31286e-013 0)
(4.66794e-013 -1.31894e-013 0)
(-4.08445e-013 -1.21561e-013 0)
(3.69545e-013 -1.61676e-013 0)
(-2.91746e-014 -1.28855e-013 0)
(2.72297e-013 -1.27639e-013 0)
(-2.23672e-013 -1.40403e-013 0)
(4.86244e-014 -1.17306e-013 0)
(-3.50096e-013 -1.33109e-013 0)
(-1.36148e-013 -1.32502e-013 0)
(-2.04222e-013 -1.14875e-013 0)
(1.45873e-013 -1.12444e-013 0)
(-3.50096e-013 -1.246e-013 0)
(1.45873e-013 -1.14875e-013 0)
(5.83493e-014 -1.11836e-013 0)
(-3.88995e-014 -1.08797e-013 0)
(3.33552e-029 -1.18522e-013 0)
(3.88995e-014 -1.11228e-013 0)
(-2.82022e-013 -1.05758e-013 0)
(1.26423e-013 -1.10013e-013 0)
(-4.86244e-014 -1.21561e-013 0)
(3.50096e-013 -1.01503e-013 0)
(-1.06974e-013 -1.21561e-013 0)
(4.66794e-013 -1.3007e-013 0)
(1.94498e-014 -1.20345e-013 0)
(-4.86244e-014 -1.33717e-013 0)
(5.15419e-013 -1.43442e-013 0)
(1.55598e-013 -1.39187e-013 0)
(9.72488e-015 -1.58637e-013 0)
(-4.86244e-014 -1.50736e-013 0)
(1.36148e-013 -1.635e-013 0)
(-3.40371e-013 -1.56814e-013 0)
(-7.58216e-027 -1.54382e-013 0)
(-6.12667e-013 -1.57422e-013 0)
(-8.75239e-014 -1.45873e-013 0)
(-3.50096e-013 -1.53167e-013 0)
(9.72488e-014 -1.45873e-013 0)
(-3.01471e-013 -1.50736e-013 0)
(1.06974e-013 -1.51343e-013 0)
(2.62572e-013 -1.56206e-013 0)
(-9.72488e-014 -1.45873e-013 0)
(2.91746e-014 -1.44658e-013 0)
(-1.84773e-013 -1.39187e-013 0)
(-4.57069e-013 -1.33717e-013 0)
(-1.26423e-013 -1.45873e-013 0)
(1.84773e-013 -1.52559e-013 0)
(1.75048e-013 -1.64715e-013 0)
(2.33397e-013 -1.61676e-013 0)
(2.91746e-014 -1.66539e-013 0)
(1.26423e-013 -1.67146e-013 0)
(-2.04222e-013 -1.65323e-013 0)
(3.69545e-013 -1.65931e-013 0)
(9.72488e-014 -1.58029e-013 0)
(-1.94498e-014 -1.90851e-013 0)
(1.65323e-013 -1.50736e-013 0)
(-1.16699e-013 -1.71401e-013 0)
(-1.26423e-013 -1.67754e-013 0)
(1.94498e-014 -1.71401e-013 0)
(-5.54318e-013 -1.67146e-013 0)
(3.50096e-013 -1.5499e-013 0)
(-3.7927e-013 -1.69578e-013 0)
(3.11196e-013 -1.60461e-013 0)
(-2.33397e-013 -1.53775e-013 0)
(1.16699e-013 -1.58637e-013 0)
(2.82022e-013 -1.61068e-013 0)
(-4.86244e-014 -1.73224e-013 0)
(1.84305e-029 -1.67146e-013 0)
(1.94498e-014 -1.66539e-013 0)
(-3.20921e-013 -1.70793e-013 0)
(-3.88995e-014 -1.75656e-013 0)
(-7.7799e-014 -1.70793e-013 0)
(2.33397e-013 -1.60461e-013 0)
(-2.91746e-014 -1.67146e-013 0)
(-2.69795e-028 -1.61676e-013 0)
(2.62572e-013 -1.80518e-013 0)
(-2.91746e-014 -1.6897e-013 0)
(6.22392e-013 -1.68362e-013 0)
(1.94498e-014 -1.55598e-013 0)
(1.36148e-013 -1.80518e-013 0)
(-2.91746e-014 -1.52559e-013 0)
(-9.72488e-015 -1.5499e-013 0)
(-2.52847e-013 -1.56206e-013 0)
(-9.72488e-015 -1.50128e-013 0)
(-6.02943e-013 -1.47697e-013 0)
(1.55598e-013 -1.53775e-013 0)
(-1.94498e-013 -1.33109e-013 0)
(3.30646e-013 -1.3007e-013 0)
(-1.84773e-013 -1.22169e-013 0)
(-8.75239e-014 -1.3858e-013 0)
(1.26423e-013 -1.19738e-013 0)
(-3.88995e-014 -1.20953e-013 0)
(6.64182e-029 -1.18522e-013 0)
(9.72488e-015 -1.14267e-013 0)
(-3.30646e-013 -1.21561e-013 0)
(-9.72488e-015 -1.13052e-013 0)
(-3.40371e-013 -1.37364e-013 0)
(8.75239e-014 -1.14267e-013 0)
(-2.33397e-013 -1.23992e-013 0)
(-1.19279e-028 -1.1913e-013 0)
(1.05584e-012 -9.63805e-015 0)
(1.66712e-013 -3.29083e-014 0)
(7.11306e-013 -2.60488e-014 0)
(3.55653e-013 -3.21268e-014 0)
(4.66794e-013 -4.86244e-014 0)
(6.77963e-013 -4.3241e-014 0)
(5.33479e-013 -5.696e-014 0)
(3.2231e-013 -5.55707e-014 0)
(5.22365e-013 -6.27776e-014 0)
(2.77854e-013 -7.89278e-014 0)
(4.66794e-013 -7.80595e-014 0)
(6.11278e-013 -7.95356e-014 0)
(4.89023e-013 -9.42098e-014 0)
(2.33397e-013 -8.63083e-014 0)
(7.00191e-013 -9.75961e-014 0)
(1.55598e-013 -1.07668e-013 0)
(4.77908e-013 -1.24079e-013 0)
(5.11251e-013 -1.15309e-013 0)
(4.77908e-013 -1.20259e-013 0)
(3.55653e-013 -1.18001e-013 0)
(4.11224e-013 -1.19998e-013 0)
(8.33561e-013 -1.18522e-013 0)
(7.44648e-013 -1.27031e-013 0)
(8.11333e-013 -1.24947e-013 0)
(9.22474e-013 -1.23992e-013 0)
(5.8905e-013 -1.30765e-013 0)
(7.11306e-013 -1.27813e-013 0)
(4.89023e-013 -1.34412e-013 0)
(6.00164e-013 -1.42226e-013 0)
(3.66767e-013 -1.42834e-013 0)
(2.6674e-013 -1.47957e-013 0)
(3.33424e-013 -1.47262e-013 0)
(1.00027e-013 -1.3858e-013 0)
(3.66767e-013 -1.58116e-013 0)
(3.11196e-013 -1.33457e-013 0)
(4.00109e-013 -1.53601e-013 0)
(4.33452e-013 -1.31112e-013 0)
(2.33397e-013 -1.33457e-013 0)
(-8.89132e-014 -1.2651e-013 0)
(-1.11141e-013 -1.36669e-013 0)
(-2.00055e-013 -1.26858e-013 0)
(-1.77826e-013 -1.38493e-013 0)
(-1.88941e-013 -1.32328e-013 0)
(1.22256e-013 -1.34846e-013 0)
(5.55707e-014 -1.36582e-013 0)
(-1.00027e-013 -1.33196e-013 0)
(2.33397e-013 -1.34933e-013 0)
(-5.55707e-014 -1.3528e-013 0)
(-7.7799e-014 -1.36148e-013 0)
(3.11196e-013 -1.36148e-013 0)
(3.33424e-014 -1.33022e-013 0)
(1.66712e-013 -1.32241e-013 0)
(1.66712e-013 -1.42661e-013 0)
(4.44566e-014 -1.2434e-013 0)
(-4.44566e-014 -1.37798e-013 0)
(1.00027e-013 -1.34672e-013 0)
(2.22283e-013 -1.31112e-013 0)
(2.11169e-013 -1.39101e-013 0)
(1.11141e-014 -1.24426e-013 0)
(-2.22283e-014 -1.41098e-013 0)
(1.11141e-013 -1.23211e-013 0)
(2.11169e-013 -1.28421e-013 0)
(-4.44566e-014 -1.2651e-013 0)
(1.66712e-013 -1.34759e-013 0)
(1.66712e-013 -1.18175e-013 0)
(1.11141e-013 -1.34585e-013 0)
(2.00055e-013 -1.21301e-013 0)
(-3.11196e-013 -1.23558e-013 0)
(-1.55598e-013 -1.25034e-013 0)
(-6.66849e-014 -1.33543e-013 0)
(3.44539e-013 -1.17741e-013 0)
(1.00027e-013 -1.21127e-013 0)
(-2.22283e-014 -1.25816e-013 0)
(-3.33424e-013 -1.15136e-013 0)
(-3.00082e-013 -1.29897e-013 0)
(-5.22365e-013 -1.26597e-013 0)
(-4.77908e-013 -1.30157e-013 0)
(-6.77963e-013 -1.41271e-013 0)
(-5.44593e-013 -1.43355e-013 0)
(-4.44566e-013 -1.57682e-013 0)
(-6.77963e-013 -1.51778e-013 0)
(1.11141e-014 -1.58377e-013 0)
(-1.11141e-014 -1.58724e-013 0)
(1.77826e-013 -1.55511e-013 0)
(-2.22283e-014 -1.58811e-013 0)
(3.2231e-013 -1.41792e-013 0)
(1.44484e-013 -1.46134e-013 0)
(-3.77881e-013 -1.43876e-013 0)
(7.7799e-014 -1.54469e-013 0)
(-1.44484e-013 -1.33717e-013 0)
(-3.33424e-013 -1.5282e-013 0)
(-2.33397e-013 -1.50909e-013 0)
(-3.11196e-013 -1.50736e-013 0)
(-5.66822e-013 -1.5473e-013 0)
(-3.77881e-013 -1.60895e-013 0)
(-3.55653e-013 -1.50562e-013 0)
(-1.11141e-014 -1.56032e-013 0)
(1.55598e-013 -1.59245e-013 0)
(1.44484e-013 -1.60547e-013 0)
(-3.55653e-013 -1.59766e-013 0)
(-1.11141e-014 -1.64455e-013 0)
(-1.11141e-014 -1.61416e-013 0)
(2.44511e-013 -1.67667e-013 0)
(1.44484e-013 -1.55859e-013 0)
(2.55625e-013 -1.71748e-013 0)
(1.11141e-013 -1.50562e-013 0)
(-1.11141e-014 -1.70185e-013 0)
(-8.89132e-014 -1.55338e-013 0)
(1.11141e-014 -1.57161e-013 0)
(-1.66712e-013 -1.64455e-013 0)
(5.55707e-014 -1.53601e-013 0)
(2.44511e-013 -1.69491e-013 0)
(2.11169e-013 -1.48044e-013 0)
(3.2231e-013 -1.62892e-013 0)
(-1.00027e-013 -1.55424e-013 0)
(6.66849e-014 -1.4952e-013 0)
(-2.11169e-013 -1.64802e-013 0)
(-3.66767e-013 -1.54556e-013 0)
(-4.44566e-013 -1.62544e-013 0)
(-3.44539e-013 -1.68796e-013 0)
(-3.33424e-013 -1.5829e-013 0)
(-8.89132e-014 -1.72703e-013 0)
(2.55625e-013 -1.6376e-013 0)
(3.2231e-013 -1.61068e-013 0)
(-2.33397e-013 -1.65323e-013 0)
(-7.7799e-014 -1.65323e-013 0)
(6.66849e-014 -1.61502e-013 0)
(2.55625e-013 -1.71662e-013 0)
(6.00164e-013 -1.61589e-013 0)
(5.11251e-013 -1.65062e-013 0)
(3.00082e-013 -1.56206e-013 0)
(1.00027e-013 -1.61242e-013 0)
(1.66712e-013 -1.46915e-013 0)
(5.55707e-014 -1.5117e-013 0)
(5.22365e-013 -1.53254e-013 0)
(5.22365e-013 -1.41532e-013 0)
(5.33479e-013 -1.42834e-013 0)
(1.3337e-013 -1.34151e-013 0)
(5.11251e-013 -1.50562e-013 0)
(3.2231e-013 -1.30678e-013 0)
(2.00055e-013 -1.40316e-013 0)
(-2.22283e-014 -1.32936e-013 0)
(-7.7799e-014 -1.34585e-013 0)