/*--------------------------------*- C++ -*----------------------------------*\
| =========                 |                                                 |
| \\      /  F ield         | OpenFOAM: The Open Source CFD Toolbox           |
|  \\    /   O peration     | Version:  5.x                                   |
|   \\  /    A nd           | Web:      www.OpenFOAM.org                      |
|    \\/     M anipulation  |                                                 |
\*---------------------------------------------------------------------------*/
/*   Windows 32 and 64 bit porting by blueCAPE: http://www.bluecape.com.pt   *\
|  Based on Windows porting (2.0.x v4) by Symscape: http://www.symscape.com   |
\*---------------------------------------------------------------------------*/
FoamFile
{
    version     2.0;
    format      ascii;
    class       volScalarField;
    location    "0.006";
    object      mag(U);
}
// * * * * * * * * * * * * * * * * * * * * * * * * * * * * * * * * * * * * * //

dimensions      [0 1 -1 0 0 0 0];

internalField   nonuniform List<scalar> 
100
(
13.0071
57.4017
143.591
225.331
281.125
292.273
12.4471
54.1388
141.195
232.611
295.439
304.958
12.3301
53.2987
138.578
224.199
284.965
304.11
12.1806
52.3396
138.115
226.768
289.95
311.985
12.0951
51.7429
136.883
224.487
287.421
318.662
11.8953
50.6007
136.38
226.059
291.239
336.108
12.3114
53.0316
139.018
228.62
291.164
327.626
11.743
49.7802
135.489
226.279
291.443
330.158
12.3825
53.669
139.559
228.745
291.645
320.322
12.0273
51.7444
136.399
225.947
288.705
319.619
349.516
356.389
337.67
341.579
339.968
343.854
322.991
319.679
324.853
324.427
136.908
137.859
52.5736
229.378
173.083
56.1218
300.959
223.105
62.1008
333.845
258.847
69.9755
347.934
276.335
75.3626
354.125
284.328
80.6343
340.237
288.078
82.4108
341.445
292.223
90.8156
310.782
264.289
91.9399
319.195
277.896
100.838
)
;

boundaryField
{
    inlet
    {
        type            calculated;
        value           nonuniform List<scalar> 10(11.8953 12.3114 11.743 12.3825 12.0273 13.0071 12.4471 12.3301 12.1806 12.0951);
    }
    outlet
    {
        type            calculated;
        value           nonuniform List<scalar> 10(80.6343 82.4108 90.8156 91.9399 100.838 52.5736 56.1218 62.1008 69.9755 75.3626);
    }
    bottom
    {
        type            symmetryPlane;
    }
    top
    {
        type            symmetryPlane;
    }
    obstacle
    {
        type            calculated;
        value           nonuniform List<scalar> 
12
(
292.273
304.958
304.11
311.985
318.662
136.908
229.378
300.959
333.845
347.934
349.516
356.389
)
;
    }
    defaultFaces
    {
        type            empty;
    }
}


// ************************************************************************* //
