/*--------------------------------*- C++ -*----------------------------------*\
| =========                 |                                                 |
| \\      /  F ield         | OpenFOAM: The Open Source CFD Toolbox           |
|  \\    /   O peration     | Version:  5.x                                   |
|   \\  /    A nd           | Web:      www.OpenFOAM.org                      |
|    \\/     M anipulation  |                                                 |
\*---------------------------------------------------------------------------*/
/*   Windows 32 and 64 bit porting by blueCAPE: http://www.bluecape.com.pt   *\
|  Based on Windows porting (2.0.x v4) by Symscape: http://www.symscape.com   |
\*---------------------------------------------------------------------------*/
FoamFile
{
    version     2.0;
    format      ascii;
    class       volScalarField;
    location    "0.006";
    object      p;
}
// * * * * * * * * * * * * * * * * * * * * * * * * * * * * * * * * * * * * * //

dimensions      [1 -1 -2 0 0 0 0];

internalField   nonuniform List<scalar> 
100
(
95025.3
77995.2
54800.2
38639.2
35145.4
33366.9
95190.6
78684.8
56028.6
39705.5
35695.3
33627.5
95234.9
78854.8
56262
39861
35623.6
33370.8
95286.7
79073.6
56677
40249.9
35849.8
33484.1
95315.2
79178.3
56828.7
40362.7
35800.3
33383.4
95375.9
79440.9
57341.9
40810.2
36089.4
33362.8
95249.8
78781.9
55980.8
39340.6
34666.2
32591.2
95404.3
79521.5
57514.3
40667.1
36043.7
33084.8
95128.6
78271.9
54341.7
37564
32969.4
30640.2
95382.6
79366.2
57215.7
40896.8
36603.4
34770
30071.2
28552.9
30241.4
29100.2
30830.5
29834.7
29661.8
29521.4
33627
33259.7
29976.5
27922.1
12005.4
30199.4
28698.9
12666
29772.3
28394.7
12899.7
29032.7
28224.8
13084.2
28415.2
27850.9
13183.7
27812.5
27093.1
13234.4
28142.9
26395.1
13021.4
28864.7
26588.9
13028.1
29323.8
28237.2
13277.3
32887.3
31325
13674.2
)
;

boundaryField
{
    inlet
    {
        type            zeroGradient;
    }
    outlet
    {
        type            zeroGradient;
    }
    bottom
    {
        type            symmetryPlane;
    }
    top
    {
        type            symmetryPlane;
    }
    obstacle
    {
        type            zeroGradient;
    }
    defaultFaces
    {
        type            empty;
    }
}


// ************************************************************************* //
