/*--------------------------------*- C++ -*----------------------------------*\
| =========                 |                                                 |
| \\      /  F ield         | OpenFOAM: The Open Source CFD Toolbox           |
|  \\    /   O peration     | Version:  5.x                                   |
|   \\  /    A nd           | Web:      www.OpenFOAM.org                      |
|    \\/     M anipulation  |                                                 |
\*---------------------------------------------------------------------------*/
/*   Windows 32 and 64 bit porting by blueCAPE: http://www.bluecape.com.pt   *\
|  Based on Windows porting (2.0.x v4) by Symscape: http://www.symscape.com   |
\*---------------------------------------------------------------------------*/
FoamFile
{
    version     2.0;
    format      ascii;
    class       surfaceScalarField;
    location    "0.006";
    object      phi;
}
// * * * * * * * * * * * * * * * * * * * * * * * * * * * * * * * * * * * * * //

dimensions      [1 0 -1 0 0 0 0];

internalField   nonuniform List<scalar> 
174
(
10.0149
-0.982812
19.8777
-0.488581
25.7519
0.0317106
23.2149
-0.384686
20.0254
-0.219217
-0.452534
5.99071
-1.05143
11.7643
-0.16538
15.618
0.181184
13.8513
-0.506265
11.8502
0.284859
-0.539638
4.0817
-1.1968
8.30925
-0.306188
11.1264
0.121264
10.1459
-0.679347
8.75525
0.55093
-0.623412
2.62682
-1.20737
5.31829
-0.291171
7.15749
0.136974
6.48297
-0.722008
5.6728
0.665208
-0.64005
1.7571
-1.21973
3.61274
-0.336009
4.89616
0.109811
4.47275
-0.781947
3.94309
0.737088
-0.662453
7.22468
-1.08585
14.9693
-0.466304
20.6106
-0.249407
18.9705
-1.04287
17.5667
0.461085
-0.995599
15.6502
13.5074
-1.04335
27.0484
-0.100156
36.2505
0.341156
32.7454
0.0338685
29.5416
0.643381
-0.936678
26.491
22.477
-0.0310853
46.923
-0.423541
65.3091
0.753923
59.8861
-0.606308
54.5339
-0.649922
-0.370898
47.8747
43.2319
0.567123
85.449
2.76752
111.915
7.80879
99.8417
4.02748
88.9112
2.54162
1.13318
78.4274
73.9375
150.282
205.96
189.3
171.55
153.288
14.7427
-0.915856
-1.49824
14.3258
25.4633
-0.619273
-1.17679
24.6378
46.4619
-0.257131
-0.502045
44.8906
75.8465
0.220257
0.092363
73.877
149.114
145.685
8.14051
-2.71049
5.23158
-4.92981
-2.26719
6.85288
-3.53247
3.95386
-6.61117
-4.59458
5.46895
-3.82877
3.377
-7.6216
-5.39069
3.87587
-4.12758
2.75628
-8.79973
-5.49064
2.73064
-4.38708
1.9571
-9.60963
-5.55507
12.89
-4.04278
8.63544
-11.8517
-5.81039
22.8532
-3.00684
13.6463
-13.1139
-6.21475
42.3148
-1.27312
24.2506
-8.7319
-3.87147
71.435
-0.212608
47.2722
-3.65934
-1.62828
141.284
92.2326
)
;

boundaryField
{
    inlet
    {
        type            calculated;
        value           nonuniform List<scalar> 10(-1.79651 -3.30923 -5.61407 -10.5021 -18.1976 -2.30953 -1.48075 -0.9821 -0.648873 -0.431021);
    }
    outlet
    {
        type            calculated;
        value           nonuniform List<scalar> 10(1.79239 3.27539 6.4447 11.7838 23.3069 1.24062 0.946959 0.718095 0.548479 0.400533);
    }
    bottom
    {
        type            symmetryPlane;
        value           uniform 0;
    }
    top
    {
        type            symmetryPlane;
        value           uniform 0;
    }
    obstacle
    {
        type            calculated;
        value           nonuniform List<scalar> 
12
(
18.2067
10.6182
7.91363
5.10599
3.58817
-6.60079
-6.57192
-5.69681
-4.03152
-2.77971
1.23662
1.56853
)
;
    }
    defaultFaces
    {
        type            empty;
        value           nonuniform 0();
    }
}


// ************************************************************************* //
