/*--------------------------------*- C++ -*----------------------------------*\
| =========                 |                                                 |
| \\      /  F ield         | OpenFOAM: The Open Source CFD Toolbox           |
|  \\    /   O peration     | Version:  5.x                                   |
|   \\  /    A nd           | Web:      www.OpenFOAM.org                      |
|    \\/     M anipulation  |                                                 |
\*---------------------------------------------------------------------------*/
/*   Windows 32 and 64 bit porting by blueCAPE: http://www.bluecape.com.pt   *\
|  Based on Windows porting (2.0.x v4) by Symscape: http://www.symscape.com   |
\*---------------------------------------------------------------------------*/
FoamFile
{
    version     2.0;
    format      ascii;
    class       volScalarField;
    location    "0.006";
    object      T;
}
// * * * * * * * * * * * * * * * * * * * * * * * * * * * * * * * * * * * * * //

dimensions      [0 0 0 1 0 0 0];

internalField   nonuniform List<scalar> 
100
(
342.975
326.613
280.34
294.116
344.913
394.979
343.202
327.099
280.422
296.619
349.362
393.892
343.248
327.483
281.132
294.768
343.164
393.229
343.317
327.627
281.194
295.942
345.657
394.798
343.351
327.825
281.446
295.646
343.471
395.106
343.428
327.971
282.552
296.616
341.885
384.787
343.271
327.277
281.602
294.847
340.271
384.278
343.466
328.101
282.463
296.04
342.779
384.859
343.14
326.67
278.884
290.894
336.682
378.092
343.424
327.916
282.64
296.891
346.096
391.704
395.111
394.56
396.133
397.158
396.074
398.639
391.769
399.735
406.086
412.306
381.614
381.961
297.96
396.835
390.624
302.438
406.422
400.393
306.488
403.572
399.484
310.154
397.572
393.244
311.356
396.349
393.182
312.58
396.035
387.694
310.375
397.855
387.412
311.148
399.156
391.2
312.936
412.054
403.971
317.024
)
;

boundaryField
{
    inlet
    {
        type            zeroGradient;
    }
    outlet
    {
        type            zeroGradient;
    }
    bottom
    {
        type            symmetryPlane;
    }
    top
    {
        type            symmetryPlane;
    }
    obstacle
    {
        type            zeroGradient;
    }
    defaultFaces
    {
        type            empty;
    }
}


// ************************************************************************* //
