/*--------------------------------*- C++ -*----------------------------------*\
| =========                 |                                                 |
| \\      /  F ield         | OpenFOAM: The Open Source CFD Toolbox           |
|  \\    /   O peration     | Version:  5.x                                   |
|   \\  /    A nd           | Web:      www.OpenFOAM.org                      |
|    \\/     M anipulation  |                                                 |
\*---------------------------------------------------------------------------*/
/*   Windows 32 and 64 bit porting by blueCAPE: http://www.bluecape.com.pt   *\
|  Based on Windows porting (2.0.x v4) by Symscape: http://www.symscape.com   |
\*---------------------------------------------------------------------------*/
FoamFile
{
    version     2.0;
    format      ascii;
    class       volVectorField;
    location    "0.006";
    object      U;
}
// * * * * * * * * * * * * * * * * * * * * * * * * * * * * * * * * * * * * * //

dimensions      [0 1 -1 0 0 0 0];

internalField   nonuniform List<vector> 
100
(
(12.9693 0.990623 0)
(56.9594 7.1121 0)
(142.022 21.166 0)
(223.303 30.1653 0)
(278.566 37.8445 0)
(290.229 34.5025 0)
(12.4297 -0.657226 0)
(54.0329 -3.38473 0)
(140.784 -10.7674 -4.49667e-018)
(231.978 -17.1447 9.15004e-018)
(294.512 -23.3868 0)
(304.098 -22.8855 3.81461e-017)
(12.3266 0.293406 0)
(53.2242 2.81571 0)
(138.319 8.47295 0)
(223.908 11.4202 0)
(284.468 16.8228 0)
(303.899 11.3418 1.42108e-017)
(12.1769 -0.298585 0)
(52.3327 -0.845079 -1.09129e-018)
(138.084 -2.94115 1.78899e-018)
(226.693 -5.84272 0)
(289.882 -6.25872 0)
(311.894 -7.5417 1.07035e-017)
(12.0949 0.0615637 -3.36794e-019)
(51.7268 1.2939 5.31839e-019)
(136.834 3.65428 0)
(224.449 4.11239 -3.06739e-018)
(287.327 7.34574 5.43728e-018)
(318.649 2.90322 7.97056e-018)
(11.8757 -0.682827 0)
(50.5402 -2.4732 0)
(136.219 -6.61407 0)
(225.777 -11.2846 0)
(291.025 -11.1666 0)
(335.836 -13.527 0)
(12.3111 0.0801958 0)
(52.986 2.20051 0)
(138.836 7.10184 0)
(228.387 10.3321 0)
(290.748 15.5461 0)
(327.538 7.55786 0)
(11.7371 -0.372256 0)
(49.7135 -2.57665 0)
(135.229 -8.38784 0)
(225.906 -12.9886 0)
(290.951 -16.9356 0)
(329.781 -15.7687 0)
(12.3747 0.43958 0)
(53.5803 3.08504 0)
(138.949 13.0347 0)
(228.156 16.4131 0)
(290.961 19.9529 0)
(319.761 18.9513 0)
(12.0253 -0.219246 0)
(51.7247 -1.42892 0)
(136.308 -4.98208 0)
(225.788 -8.47381 0)
(288.497 -10.961 0)
(319.329 -13.5992 0)
(349.003 -18.9187 0)
(355.463 -25.6793 0)
(337.665 -1.80298 0)
(341.295 -13.931 0)
(339.471 -18.3756 0)
(343.12 -22.4499 0)
(322.578 16.3345 0)
(319.441 12.3233 0)
(324.549 -14.0717 0)
(324.122 -14.0621 0)
(136.638 -8.59806 1.48264e-016)
(137.482 10.1852 -5.02443e-017)
(51.6398 9.86499 0)
(227.33 -30.5804 1.09564e-016)
(171.689 -21.9252 1.47827e-017)
(55.8133 -5.87671 -8.53942e-018)
(299.343 -31.1446 0)
(222.599 -15.0242 0)
(61.9826 -3.8288 0)
(331.374 -40.5451 5.48663e-017)
(258.057 -20.2088 -8.90318e-018)
(69.7444 -5.68208 0)
(344.919 -45.7089 1.85219e-017)
(274.863 -28.4873 0)
(75.2335 -4.40805 0)
(351.394 -43.9008 0)
(281.111 -42.6525 0)
(79.0255 -16.0269 0)
(338.371 -35.5817 0)
(284.281 -46.6193 0)
(81.721 -10.6401 0)
(340.255 -28.4799 0)
(289.431 -40.2993 0)
(90.2474 -10.1426 0)
(310.73 5.6828 0)
(264.065 -10.8877 0)
(91.8842 -3.20033 0)
(318.916 -13.3333 0)
(277.738 -9.36193 0)
(100.821 -1.8738 0)
)
;

boundaryField
{
    inlet
    {
        type            zeroGradient;
    }
    outlet
    {
        type            zeroGradient;
    }
    bottom
    {
        type            symmetryPlane;
    }
    top
    {
        type            symmetryPlane;
    }
    obstacle
    {
        type            zeroGradient;
    }
    defaultFaces
    {
        type            empty;
    }
}


// ************************************************************************* //
