/*--------------------------------*- C++ -*----------------------------------*\
| =========                 |                                                 |
| \\      /  F ield         | OpenFOAM: The Open Source CFD Toolbox           |
|  \\    /   O peration     | Version:  5.x                                   |
|   \\  /    A nd           | Web:      www.OpenFOAM.org                      |
|    \\/     M anipulation  |                                                 |
\*---------------------------------------------------------------------------*/
/*   Windows 32 and 64 bit porting by blueCAPE: http://www.bluecape.com.pt   *\
|  Based on Windows porting (2.0.x v4) by Symscape: http://www.symscape.com   |
\*---------------------------------------------------------------------------*/
FoamFile
{
    version     2.0;
    format      ascii;
    class       volScalarField;
    location    "0.001";
    object      mag(U);
}
// * * * * * * * * * * * * * * * * * * * * * * * * * * * * * * * * * * * * * //

dimensions      [0 1 -1 0 0 0 0];

internalField   nonuniform List<scalar> 
1000
(
1.2409e-013
5.7076e-013
3.03658e-013
4.15076e-013
2.50358e-013
5.39492e-014
2.59375e-013
2.79618e-013
1.04471e-013
4.65286e-013
4.5686e-013
1.19464e-013
5.02254e-013
8.71003e-014
4.14476e-013
2.02839e-013
2.96994e-013
1.76506e-013
7.17907e-013
5.48684e-013
6.78561e-014
1.24126e-013
1.02785e-013
2.49682e-013
4.14592e-013
1.46021e-013
9.14482e-014
2.29542e-013
5.73481e-014
7.74283e-013
8.61946e-014
1.10527e-013
6.1238e-013
4.82468e-014
7.28154e-013
2.36066e-013
8.22927e-013
7.02082e-013
8.96144e-014
4.5511e-013
2.81404e-013
4.35178e-013
5.50619e-013
6.87146e-013
1.11088e-013
3.09138e-013
1.58375e-013
1.26402e-013
8.01799e-013
4.09862e-013
2.14385e-013
3.48745e-013
1.19682e-013
2.55e-013
5.37379e-013
2.40268e-013
1.81712e-013
1.43388e-013
2.84298e-013
1.03656e-013
3.73207e-013
7.81723e-013
2.18744e-013
3.706e-013
3.06004e-013
4.31251e-013
1.02744e-012
7.54968e-013
9.25275e-014
3.11414e-014
4.96973e-013
1.30762e-013
4.70913e-013
2.50568e-013
7.87269e-013
7.23653e-013
4.43052e-013
8.67246e-013
2.70218e-013
5.07408e-013
2.84087e-013
2.49755e-013
3.97091e-013
6.57276e-014
9.36816e-014
1.98038e-013
2.9945e-014
5.8322e-013
5.71608e-013
2.62485e-013
1.42402e-013
8.89179e-014
1.66754e-013
2.18209e-013
3.7957e-013
2.98465e-013
5.48946e-013
2.5763e-013
5.49887e-013
1.05512e-012
4.28734e-013
5.31246e-013
1.48628e-013
5.19859e-013
1.17999e-013
3.46629e-013
3.62598e-013
4.84335e-013
2.87389e-013
3.98797e-013
1.00463e-013
1.49991e-013
5.87424e-013
4.37239e-014
4.34397e-014
6.31801e-013
4.0113e-013
7.02738e-014
1.1587e-013
2.09269e-013
6.51766e-013
3.44811e-013
1.22635e-013
2.99663e-013
3.48212e-013
4.04525e-013
5.364e-013
6.30109e-013
9.54587e-013
4.25866e-013
1.04361e-012
2.72356e-013
3.7668e-013
1.71341e-013
7.51816e-013
3.67791e-013
1.79628e-013
1.26128e-013
1.8965e-013
1.33919e-013
8.99561e-013
4.48503e-013
3.95871e-013
5.18732e-013
6.07618e-013
1.19798e-012
6.17897e-013
4.78894e-013
6.0148e-013
8.7546e-014
4.75791e-013
1.54783e-013
2.60519e-013
4.44509e-013
1.39679e-013
4.32575e-013
2.98346e-013
7.84308e-014
5.62682e-013
7.49168e-013
4.96616e-012
2.24343e-011
1.06571e-010
4.84098e-010
2.15386e-009
9.32942e-009
3.93446e-008
1.61344e-007
6.42657e-007
2.48321e-006
9.29527e-006
3.36564e-005
0.000117682
0.000396633
0.00128591
0.00400102
0.0119161
0.0338687
0.0915542
0.234461
0.566333
1.28434
2.72278
5.37404
9.84264
16.6991
26.2547
38.3552
52.3289
67.2662
82.5604
98.0387
113.651
129.361
145.047
160.774
176.22
191.578
206.618
221.145
235.252
248.685
261.113
272.427
282.44
290.818
296.968
300.75
302.482
302.313
301.252
299.892
298.315
295.537
290.578
284.989
280.413
276.658
273.093
269.955
267.354
264.563
260.951
256.702
251.371
243.127
226.049
175.931
85.661
23.062
4.62033
0.771665
0.113775
0.0148319
0.0017369
0.000311677
9.78171e-005
2.75287e-005
6.93704e-006
1.62678e-006
3.64043e-007
7.87861e-008
1.6614e-008
3.43228e-009
6.96566e-010
1.39293e-010
2.76615e-011
5.47109e-012
9.52942e-013
5.69159e-013
3.11991e-013
1.63767e-013
4.97849e-013
1.44468e-013
6.02385e-013
3.19273e-013
2.07821e-013
3.48811e-013
6.37945e-013
6.52242e-014
4.1439e-013
3.88146e-013
2.55416e-013
1.0817e-013
6.35349e-013
5.11378e-014
1.70731e-013
3.94518e-013
4.37526e-013
4.453e-013
5.50468e-013
7.97846e-013
4.5977e-013
6.36105e-013
1.27223e-014
5.97267e-013
1.42866e-013
1.82206e-013
4.02577e-013
4.92208e-013
2.84215e-013
2.06339e-013
1.40566e-013
2.86745e-013
3.19709e-013
2.84808e-013
4.53428e-013
3.03953e-013
7.22806e-013
9.60682e-014
5.75263e-013
2.37858e-013
3.94054e-013
1.72341e-013
3.24759e-013
4.3277e-013
2.7003e-013
1.5327e-013
1.91445e-013
2.68747e-013
1.23105e-012
1.09897e-012
5.24949e-013
7.3539e-013
3.13319e-013
9.67168e-014
5.31948e-013
1.53106e-013
9.1227e-013
3.56745e-014
2.57811e-013
6.13564e-013
2.57597e-013
4.98669e-013
1.38849e-013
6.86915e-013
7.98517e-013
1.40155e-012
1.12263e-012
8.44022e-013
5.07782e-013
7.55532e-014
1.45227e-013
6.68299e-013
2.38155e-013
4.28306e-013
2.77008e-013
1.27187e-012
6.02581e-013
5.94881e-013
4.31849e-013
8.43454e-013
1.25909e-012
8.78325e-013
1.4964e-012
1.39396e-013
4.08895e-013
2.72624e-014
1.2338e-013
1.09312e-013
3.79561e-013
9.80638e-013
6.06728e-014
8.95947e-013
2.16064e-013
1.60298e-012
1.01169e-012
2.40394e-013
1.3524e-012
7.2887e-014
5.18616e-013
5.00524e-013
9.12679e-014
1.00696e-013
8.48803e-013
1.52141e-013
1.77706e-013
3.93802e-013
5.34528e-013
4.55797e-013
4.21149e-013
8.85662e-014
9.64784e-013
8.49609e-013
5.08896e-013
2.34067e-013
3.1227e-014
3.0773e-014
3.36863e-013
3.35946e-013
4.68655e-013
2.31659e-013
4.22825e-013
2.08902e-013
4.409e-013
3.21137e-013
3.63307e-013
5.13978e-013
1.56336e-013
2.68366e-013
6.09589e-013
2.69645e-013
5.70222e-013
3.45681e-013
3.71008e-013
1.83748e-013
2.96752e-013
3.26977e-013
4.67387e-013
4.92782e-013
4.66702e-013
6.03806e-013
4.6451e-013
6.78418e-013
8.83473e-013
5.05457e-013
1.20694e-012
1.38467e-012
1.39246e-012
6.27155e-013
6.0317e-013
3.76752e-013
3.17962e-013
1.07806e-013
2.63086e-013
3.40724e-013
2.0127e-013
5.62701e-013
2.57601e-013
1.83665e-013
7.82495e-014
2.04196e-013
2.20704e-013
1.02588e-013
3.18476e-013
3.76606e-013
2.67891e-013
8.43797e-013
3.01475e-013
7.51668e-013
1.13645e-013
1.07418e-013
8.48856e-014
2.33077e-013
3.96416e-013
1.28541e-013
2.71554e-013
2.1863e-013
6.6726e-013
2.17903e-013
1.03328e-012
9.04207e-013
6.81203e-013
6.64075e-013
4.09593e-013
3.2011e-013
5.24154e-013
4.11515e-013
3.76254e-013
1.73645e-013
1.26172e-013
4.09976e-013
5.21262e-013
5.49701e-013
9.9006e-013
7.78513e-013
8.32953e-013
1.53353e-013
3.55442e-013
1.53009e-013
1.12864e-013
3.38338e-013
3.6148e-014
1.93275e-013
6.00935e-013
6.96037e-013
1.68351e-013
4.70996e-013
5.34185e-013
3.03234e-013
5.72293e-014
4.25112e-013
2.37715e-012
1.01373e-011
4.49696e-011
1.95086e-010
8.26351e-010
3.40859e-009
1.36561e-008
5.30778e-008
1.99843e-007
7.27669e-007
2.55761e-006
8.65886e-006
2.8167e-005
8.77836e-005
0.000261196
0.000738837
0.00197615
0.00496295
0.0115934
0.0248632
0.0480655
0.0854368
0.162373
0.375615
0.963493
2.34179
5.11229
9.96793
17.3915
27.327
39.2846
52.7315
67.2533
82.5365
98.3323
114.466
130.728
147.104
163.244
179.277
194.948
210.132
224.837
238.72
251.553
263.137
273.371
281.625
287.651
291.91
294.234
295.429
296.329
297.128
297.187
295.681
293.886
292.935
292.721
293.451
294.667
295.244
294.834
293.236
290.101
284.491
272.865
241.191
159.439
58.9435
13.6742
2.62368
0.457387
0.0773715
0.0129319
0.00214284
0.000352129
5.73858e-005
9.2761e-006
1.48775e-006
2.3686e-007
3.74524e-008
5.88485e-009
9.19803e-010
1.43299e-010
2.24311e-011
3.54009e-012
9.13135e-013
1.82643e-013
2.60416e-013
1.66395e-013
4.40363e-013
1.59225e-013
4.89855e-013
4.32662e-013
7.95677e-014
2.87321e-013
2.5118e-013
4.02118e-013
1.64721e-013
4.08512e-013
1.4452e-013
6.92789e-013
3.1206e-014
5.14037e-013
9.41343e-013
3.13339e-013
4.07464e-014
2.84157e-013
3.40381e-013
3.47176e-013
9.27172e-013
1.84081e-013
8.90043e-013
1.69354e-013
2.11816e-013
1.97198e-013
5.84028e-013
4.99466e-013
1.98178e-013
6.45918e-013
6.79838e-013
7.07393e-013
1.03542e-012
3.35441e-013
2.73224e-013
1.81522e-013
4.3926e-013
1.8796e-013
6.39863e-013
8.06726e-013
2.91569e-013
9.0404e-014
3.33038e-013
4.22284e-014
4.38373e-014
1.49051e-013
9.66592e-013
4.66794e-013
7.33534e-013
6.66849e-014
6.66849e-013
2.00055e-013
4.00109e-013
2.00055e-013
3.33424e-013
2.00055e-013
2.6674e-013
3.33424e-013
2.6674e-013
3.33424e-013
6.00164e-013
2.00055e-013
6.00164e-013
6.66849e-014
5.33479e-013
1.3337e-013
6.00164e-013
1.53355e-026
5.33479e-013
6.66849e-014
4.66794e-013
3.33424e-013
2.6674e-013
4.00109e-013
1.3337e-013
5.33479e-013
4.00109e-013
4.66794e-013
2.00055e-013
4.66794e-013
2.00055e-013
4.66794e-013
4.00109e-013
4.66794e-013
4.66794e-013
6.00164e-013
3.33424e-013
4.66794e-013
2.6674e-013
4.00109e-013
4.00109e-013
4.00109e-013
5.33479e-013
4.66794e-013
3.33424e-013
4.66794e-013
6.00164e-013
2.6674e-013
4.66794e-013
3.33424e-013
5.33479e-013
1.3337e-013
4.66794e-013
3.33424e-013
4.00109e-013
4.00109e-013
4.66794e-013
3.33424e-013
6.00164e-013
2.00055e-013
7.33534e-013
6.66849e-014
7.33534e-013
2.6674e-013
5.33479e-013
6.00164e-013
3.33424e-013
6.00164e-013
3.33424e-013
6.66849e-013
2.6674e-013
5.33479e-013
6.66849e-014
6.66849e-013
3.33424e-013
7.33534e-013
6.00164e-013
4.00109e-013
7.33534e-013
2.00055e-013
6.66849e-013
3.33424e-013
3.33424e-013
6.00164e-013
4.66794e-013
6.00164e-013
6.66849e-013
6.00164e-013
4.66794e-013
6.00164e-013
9.33589e-013
5.33479e-013
1.26701e-012
6.66849e-013
1.00027e-012
5.33479e-013
8.00219e-013
4.25293e-013
3.20555e-013
6.33251e-013
8.21265e-014
2.54089e-013
2.08017e-013
2.47783e-013
1.66217e-013
1.18458e-013
3.24076e-013
3.66742e-013
1.63869e-013
2.93819e-013
1.25086e-013
2.00745e-014
1.78225e-013
8.10045e-014
2.11143e-013
2.61075e-013
1.95812e-013
1.9893e-013
1.50449e-013
1.40131e-013
3.27572e-013
7.4427e-014
5.37699e-013
1.12326e-013
5.44505e-013
2.23441e-013
8.74194e-013
1.58109e-013
5.59803e-013
2.79322e-013
8.52009e-013
2.93585e-013
6.49194e-013
8.95917e-013
5.81092e-013
4.28589e-013
1.76887e-013
2.1117e-013
1.31231e-013
1.69419e-013
2.20294e-013
3.02177e-013
1.70974e-013
6.21273e-013
3.78452e-013
8.91857e-013
7.23991e-013
7.56769e-013
6.8287e-013
7.3382e-013
6.91278e-013
4.03846e-013
4.15184e-013
1.58443e-013
1.57343e-013
1.9529e-013
4.09003e-013
1.22444e-013
1.88324e-013
3.84239e-013
5.93266e-013
1.43034e-013
1.77253e-013
2.52931e-013
1.48867e-013
5.14403e-013
4.8467e-013
1.82474e-013
3.04136e-013
5.02268e-013
1.44006e-013
8.49291e-014
2.56948e-013
1.84535e-013
2.64574e-013
1.32391e-013
1.18699e-013
3.88505e-013
2.74047e-013
2.981e-013
3.16426e-013
7.94127e-014
1.11987e-015
3.70994e-013
2.36106e-014
4.77369e-013
1.57272e-013
7.07818e-013
2.334e-013
2.54432e-013
2.059e-013
2.29846e-013
4.17227e-013
2.42878e-013
2.44534e-013
1.76297e-013
1.49983e-013
7.06915e-014
2.87928e-013
7.99027e-014
4.08596e-013
5.43286e-014
1.48905e-013
3.6635e-013
3.32316e-013
2.65828e-013
1.98021e-013
3.99398e-013
2.14377e-013
2.5161e-013
1.10064e-013
1.86497e-013
4.0686e-013
4.20021e-014
2.80744e-013
4.38876e-013
1.01393e-013
5.99927e-013
3.58126e-013
5.27326e-013
4.65441e-013
1.64784e-013
3.94653e-013
1.58053e-013
7.50317e-014
5.03453e-014
5.45657e-013
1.81793e-013
2.88694e-013
1.40804e-013
1.68343e-013
4.86897e-014
1.14885e-013
5.35184e-013
2.4687e-013
4.02353e-013
3.49367e-013
4.9803e-013
4.69032e-013
1.27637e-013
3.29237e-013
4.33489e-013
2.94829e-013
8.33826e-013
6.54251e-013
6.2372e-013
9.48262e-013
1.00428e-014
1.5951e-012
3.07992e-014
1.28894e-012
2.62365e-013
8.79496e-013
5.46926e-013
4.97341e-013
9.86287e-013
2.03769e-013
4.5261e-014
1.12513e-013
1.94803e-013
8.21584e-014
3.70387e-013
2.37103e-013
1.36807e-013
3.82961e-013
4.67808e-013
4.05265e-013
7.5004e-013
3.86694e-013
2.73292e-013
1.60312e-013
2.55427e-013
5.26789e-013
1.27323e-013
8.76425e-013
3.41499e-013
1.92566e-013
4.05226e-013
4.36888e-013
1.10906e-012
8.49541e-013
7.6562e-013
1.11573e-012
1.23473e-013
4.75273e-013
1.42042e-013
2.92713e-013
9.70716e-013
1.01978e-013
2.07924e-013
3.42455e-013
1.96493e-013
5.11802e-013
6.16349e-013
1.00235e-013
7.83157e-013
6.07535e-014
4.42826e-013
8.76499e-013
5.02093e-014
1.25299e-012
4.07604e-013
5.48635e-013
5.77498e-013
3.48524e-013
2.98842e-013
1.97631e-013
1.94581e-013
1.07949e-013
4.32723e-013
1.65002e-013
2.68805e-013
2.69153e-013
6.89168e-014
2.8913e-014
1.32307e-013
4.79799e-013
1.12077e-012
9.25963e-014
1.02195e-012
3.08932e-013
2.77461e-013
6.95922e-013
5.11273e-013
4.4818e-013
1.38318e-013
5.74102e-013
4.97739e-013
4.41756e-013
2.83026e-013
1.78475e-013
4.92598e-013
4.65548e-014
1.85133e-013
3.33537e-013
1.3072e-013
2.08008e-013
2.57483e-013
2.19347e-013
2.22796e-013
8.42439e-014
2.84874e-013
3.14014e-013
2.61153e-013
3.03172e-013
5.32906e-014
3.96485e-013
3.79766e-013
8.60712e-014
4.85303e-013
2.51952e-013
4.09037e-014
2.20837e-013
2.59675e-013
1.77884e-013
5.63192e-013
1.58606e-013
1.11592e-012
1.08131e-013
1.28594e-012
3.44916e-013
4.54169e-013
2.50348e-013
2.12347e-013
1.03102e-013
5.62555e-013
6.47728e-014
5.07226e-013
8.53999e-014
1.48313e-013
2.55918e-013
4.2628e-013
1.79974e-013
1.65285e-013
3.0923e-014
3.52321e-013
1.95029e-013
9.92143e-013
7.74672e-013
2.70415e-013
5.98171e-013
6.53154e-014
5.95214e-013
4.5283e-014
3.63151e-013
2.54443e-014
1.3156e-012
3.3392e-014
1.02037e-012
1.13838e-013
4.89982e-014
2.7064e-013
3.60036e-013
2.15579e-013
1.04338e-013
5.65217e-013
6.79695e-014
)
;

boundaryField
{
    inlet
    {
        type            calculated;
        value           nonuniform List<scalar> 2(1.23105e-012 1.2409e-013);
    }
    outlet
    {
        type            calculated;
        value           nonuniform List<scalar> 2(6.79695e-014 9.48262e-013);
    }
    bottom
    {
        type            symmetryPlane;
    }
    top
    {
        type            symmetryPlane;
    }
    obstacle
    {
        type            calculated;
        value           nonuniform List<scalar> 
102
(
2.68747e-013
4.25293e-013
4.66794e-013
7.33534e-013
6.66849e-014
6.66849e-013
2.00055e-013
4.00109e-013
2.00055e-013
3.33424e-013
2.00055e-013
2.6674e-013
3.33424e-013
2.6674e-013
3.33424e-013
6.00164e-013
2.00055e-013
6.00164e-013
6.66849e-014
5.33479e-013
1.3337e-013
6.00164e-013
1.53355e-026
5.33479e-013
6.66849e-014
4.66794e-013
3.33424e-013
2.6674e-013
4.00109e-013
1.3337e-013
5.33479e-013
4.00109e-013
4.66794e-013
2.00055e-013
4.66794e-013
2.00055e-013
4.66794e-013
4.00109e-013
4.66794e-013
4.66794e-013
6.00164e-013
3.33424e-013
4.66794e-013
2.6674e-013
4.00109e-013
4.00109e-013
4.00109e-013
5.33479e-013
4.66794e-013
3.33424e-013
4.66794e-013
6.00164e-013
2.6674e-013
4.66794e-013
3.33424e-013
5.33479e-013
1.3337e-013
4.66794e-013
3.33424e-013
4.00109e-013
4.00109e-013
4.66794e-013
3.33424e-013
6.00164e-013
2.00055e-013
7.33534e-013
6.66849e-014
7.33534e-013
2.6674e-013
5.33479e-013
6.00164e-013
3.33424e-013
6.00164e-013
3.33424e-013
6.66849e-013
2.6674e-013
5.33479e-013
6.66849e-014
6.66849e-013
3.33424e-013
7.33534e-013
6.00164e-013
4.00109e-013
7.33534e-013
2.00055e-013
6.66849e-013
3.33424e-013
3.33424e-013
6.00164e-013
4.66794e-013
6.00164e-013
6.66849e-013
6.00164e-013
4.66794e-013
6.00164e-013
9.33589e-013
5.33479e-013
1.26701e-012
6.66849e-013
1.00027e-012
5.33479e-013
8.00219e-013
)
;
    }
    defaultFaces
    {
        type            empty;
    }
}


// ************************************************************************* //
