/*--------------------------------*- C++ -*----------------------------------*\
| =========                 |                                                 |
| \\      /  F ield         | OpenFOAM: The Open Source CFD Toolbox           |
|  \\    /   O peration     | Version:  5.x                                   |
|   \\  /    A nd           | Web:      www.OpenFOAM.org                      |
|    \\/     M anipulation  |                                                 |
\*---------------------------------------------------------------------------*/
/*   Windows 32 and 64 bit porting by blueCAPE: http://www.bluecape.com.pt   *\
|  Based on Windows porting (2.0.x v4) by Symscape: http://www.symscape.com   |
\*---------------------------------------------------------------------------*/
FoamFile
{
    version     2.0;
    format      ascii;
    class       surfaceScalarField;
    location    "0.001";
    object      phi;
}
// * * * * * * * * * * * * * * * * * * * * * * * * * * * * * * * * * * * * * //

dimensions      [1 0 -1 0 0 0 0];

internalField   nonuniform List<scalar> 
1447
(
-3.2685e-013
1.29757e-015
-5.82645e-013
-1.65146e-015
-6.46594e-013
5.55112e-017
-4.05009e-013
-1.40166e-015
-2.55795e-013
5.48173e-016
-3.41061e-013
-4.30211e-016
-2.62901e-013
1.11022e-016
-2.70006e-013
-9.57567e-016
-1.7053e-013
4.57967e-016
-4.26326e-014
-1.77636e-015
5.32907e-013
2.01922e-015
4.83169e-013
-9.92262e-016
2.4869e-013
-1.38778e-017
-3.19744e-013
-2.01922e-015
-4.1922e-013
-1.6237e-015
-4.40536e-013
-1.15186e-015
-2.77112e-013
6.93889e-017
-7.24754e-013
1.99146e-015
-9.37916e-013
2.33147e-015
-3.97904e-013
2.75474e-015
9.9476e-014
4.44089e-015
1.7053e-013
3.6221e-015
1.7053e-013
3.72619e-015
5.68434e-013
3.55271e-015
1.56319e-013
3.53884e-015
-3.55271e-014
1.40166e-015
2.27374e-013
3.00454e-015
1.56319e-013
5.41234e-016
4.83169e-013
2.02616e-015
4.47642e-013
3.60822e-016
4.9738e-014
-1.52656e-016
-3.97904e-013
-1.16573e-015
-3.83693e-013
-4.92661e-015
-4.9738e-013
-1.65146e-015
-7.60281e-013
-6.37684e-015
-6.03961e-013
-2.08861e-015
-1.16529e-012
-5.73153e-015
-5.32907e-013
-3.10862e-015
1.84741e-013
-1.83187e-015
6.60805e-013
-2.28983e-016
3.33955e-013
-2.06085e-015
8.10019e-013
4.44089e-016
7.81597e-013
-1.22818e-015
4.61853e-013
1.39472e-015
9.9476e-014
-4.3715e-015
3.90799e-013
8.04912e-016
1.91847e-013
-2.02616e-015
4.9738e-013
-1.42941e-015
8.45546e-013
2.01228e-015
4.76064e-013
-7.49401e-016
-9.9476e-014
-1.46411e-015
-3.41061e-013
-6.2797e-015
9.23706e-014
-2.51882e-015
5.25802e-013
-2.78944e-015
4.1922e-013
-2.498e-015
9.9476e-014
-4.41314e-015
-2.34479e-013
-6.80012e-015
-1.84741e-013
-6.2797e-015
-9.23706e-014
-6.11317e-015
-2.70006e-013
-4.05925e-015
-6.6791e-013
-6.45317e-015
-5.82645e-013
-8.59729e-015
-4.61853e-013
-3.03924e-015
-3.33955e-013
-5.88418e-015
-5.47118e-013
-3.57353e-015
-9.23706e-013
-3.9066e-015
-1.1795e-012
-6.4046e-015
-5.11591e-013
-3.7817e-015
9.23706e-014
-1.15186e-015
2.41585e-013
-3.88578e-016
2.55795e-013
4.16334e-016
2.20268e-013
-3.37924e-015
4.83169e-013
2.14412e-015
5.8975e-013
-1.58207e-015
1.07292e-012
7.97973e-016
6.82121e-013
-4.85723e-016
8.52651e-013
7.49401e-016
4.05009e-013
9.08995e-016
1.13687e-013
-5.14172e-015
5.40012e-013
3.95517e-016
4.9738e-014
-3.04617e-015
3.55271e-014
-3.92741e-015
4.47642e-013
-4.51028e-016
2.84217e-014
-2.73392e-015
-4.26326e-014
-2.79637e-015
-1.7053e-013
-4.92661e-015
-2.91323e-013
-1.52656e-015
-7.74492e-013
-6.12704e-015
-4.76064e-013
-5.05845e-015
-2.98428e-013
-2.84495e-015
-1.42109e-013
-2.30371e-015
-1.49214e-013
-1.08941e-015
-2.13163e-013
-6.93889e-016
-4.76064e-013
-2.63678e-016
-3.05533e-013
-1.9984e-015
-5.11591e-013
-2.80331e-015
-5.25802e-013
-1.00614e-015
-4.76064e-013
1.8735e-016
-8.88178e-013
-8.95117e-016
-9.166e-013
-2.67841e-015
-4.90274e-013
7.21645e-016
-2.62901e-013
1.29063e-015
-2.4869e-013
5.63438e-015
-2.34479e-013
1.83881e-015
2.98428e-013
3.87884e-015
3.62377e-013
7.71605e-015
4.90274e-013
7.34135e-015
4.40536e-013
6.70991e-015
4.54747e-013
5.34295e-015
2.20268e-013
5.1556e-015
-4.9738e-014
2.90046e-015
2.41585e-013
8.67362e-016
5.04485e-013
4.83641e-015
-4.26326e-014
1.5335e-015
4.76064e-013
-9.22873e-016
6.39488e-013
5.2805e-015
1.63425e-013
1.61676e-015
7.10543e-014
-4.59355e-015
1.13687e-013
-1.68615e-015
-2.13163e-013
-9.92262e-016
-1.91847e-013
-7.00134e-015
2.4869e-013
-8.18789e-016
2.20268e-013
-2.35922e-015
4.61853e-013
-6.03684e-016
-5.68434e-014
-4.02456e-016
5.68434e-014
-7.10543e-015
6.11067e-013
1.94289e-015
1.03029e-012
7.07767e-016
5.96856e-013
2.0331e-015
8.59757e-013
2.42861e-016
8.02913e-013
4.37844e-015
2.41585e-013
-2.59515e-015
1.98952e-013
6.93889e-017
3.05533e-013
-7.13318e-015
2.27374e-013
4.18415e-015
-1.63425e-013
-8.09769e-015
1.91847e-013
-3.49026e-015
-1.27898e-013
-4.92661e-015
-8.52651e-014
-7.57727e-015
-5.47118e-013
-7.16094e-015
-7.4607e-013
-1.4766e-014
-4.61853e-013
-9.55486e-015
-3.76588e-013
-6.97359e-015
-6.82121e-013
-1.19627e-014
-9.73444e-013
-1.05194e-014
-7.81597e-013
-1.4766e-014
-7.17648e-013
-1.03043e-014
-4.83169e-013
-6.97359e-015
-2.70006e-013
-5.95357e-015
-3.55271e-013
-3.64292e-015
-2.41585e-013
-7.02216e-015
-2.84217e-013
1.39472e-015
9.9476e-014
-2.49106e-015
2.13163e-013
7.19563e-015
1.27898e-013
-5.68989e-016
4.33431e-013
8.22259e-015
1.35003e-013
1.42247e-015
2.41585e-013
4.1564e-015
4.90274e-013
3.49026e-015
2.16005e-012
4.60049e-015
1.01963e-011
3.42781e-014
4.82601e-011
1.60663e-013
2.21853e-010
7.74124e-013
9.95314e-010
3.5674e-012
4.3526e-009
1.61112e-011
1.85377e-008
7.07996e-011
7.68149e-008
3.02973e-010
3.09341e-007
1.26084e-009
1.20924e-006
5.09731e-009
4.58248e-006
1.99942e-008
1.68105e-005
7.59906e-008
5.96027e-005
2.79424e-007
0.000203894
9.92435e-007
0.000671666
3.39851e-006
0.00212605
1.11981e-005
0.00645069
3.54228e-005
0.0187086
0.000107296
0.0517004
0.000310289
0.135632
0.000853783
0.336358
0.0022264
0.784708
0.00547692
1.71325
0.0126447
3.48359
0.0272532
6.56474
0.0545354
11.418
0.100786
18.2917
0.171364
27.0124
0.267812
36.9245
0.385732
47.0584
0.515392
56.5548
0.645904
65.1386
0.770454
72.7993
0.886898
79.523
0.994862
85.3896
1.09392
90.2433
1.18456
94.5016
1.26353
97.8435
1.33898
100.142
1.39747
102.423
1.45081
104.013
1.49936
104.289
1.5399
104.294
1.55811
104.689
1.58503
104.782
1.61364
103.766
1.62349
102.063
1.62737
100.424
1.63374
99.6798
1.64216
99.1994
1.64581
98.5741
1.6455
97.7051
1.72078
96.1357
1.9448
92.5447
1.8965
83.367
1.74167
73.7643
1.72058
66.5195
1.59002
61.6017
1.46758
58.4871
1.27168
56.5088
1.15999
55.1374
1.09078
54.0575
1.0532
53.0153
1.03682
52.0822
1.02714
51.1803
1.01892
49.856
1.00164
47.3228
0.957027
40.2675
0.836111
17.9074
0.52562
5.50122
0.175051
1.17517
0.0400976
0.199497
0.00941114
0.0298486
0.00244183
0.0039322
0.000444094
0.000407445
6.7464e-005
7.21543e-006
8.9713e-006
-1.14768e-005
9.60075e-007
-4.49459e-006
4.34926e-008
-1.26853e-006
-1.63414e-008
-3.14444e-007
-8.6389e-009
-7.26007e-008
-2.61573e-009
-1.603e-008
-5.26191e-010
-3.42726e-009
-1.11949e-010
-7.14934e-010
-2.43444e-011
-1.46227e-010
-5.1972e-012
-2.94018e-011
-1.08424e-012
-5.83578e-012
-2.21249e-013
-1.15241e-012
-4.49944e-014
-2.1938e-013
-8.76643e-015
-5.50671e-014
-1.34094e-015
-3.64153e-014
-8.19657e-016
-1.82077e-014
-9.80119e-016
-3.77476e-014
-7.37257e-017
-2.93099e-014
-1.47105e-015
-3.10862e-014
-7.77156e-016
-4.08562e-014
-2.04003e-015
-7.54952e-015
-2.08167e-016
-3.9968e-015
1.22992e-015
-5.59552e-014
-1.18308e-015
-2.79776e-014
-1.82319e-015
-2.30926e-014
-6.61797e-016
-3.95239e-014
-1.1692e-015
-3.06422e-014
-9.32414e-016
-8.88178e-015
-7.30319e-016
-1.90958e-014
4.90927e-016
-4.13003e-014
-1.44936e-015
-7.54952e-015
-4.11997e-016
1.24345e-014
-7.45064e-016
3.81917e-014
1.54651e-015
3.64153e-014
1.71217e-015
5.10703e-014
1.22038e-015
6.30607e-014
1.23859e-015
5.63993e-014
2.75301e-015
4.30767e-014
1.71738e-015
4.17444e-014
1.96718e-015
1.95399e-014
6.93889e-018
3.06422e-014
2.44249e-015
-5.32907e-015
7.37257e-017
-1.02141e-014
-6.14959e-016
2.22045e-015
-1.14145e-015
2.30926e-014
1.70003e-015
-7.99361e-015
-1.21517e-015
-3.10862e-015
9.33281e-016
-1.77636e-015
-3.99854e-016
-7.54952e-015
-4.26742e-016
-2.62013e-014
-5.55112e-016
-2.84217e-014
-1.21431e-015
-2.75335e-014
-7.08635e-016
-3.15303e-014
-1.13277e-015
-4.04121e-014
-1.4164e-015
-1.90958e-014
2.40259e-016
-4.52971e-014
-2.69229e-015
-1.95399e-014
-2.32453e-016
-1.86517e-014
-2.57259e-015
-2.35367e-014
-9.22873e-016
-2.53131e-014
-1.09461e-015
-8.88178e-015
-6.46184e-016
2.62013e-014
1.71391e-015
-3.55271e-015
4.48426e-016
7.99361e-015
-6.7741e-016
1.06599e-015
-2.87059e-012
-2.04636e-012
-1.74794e-012
-9.80549e-013
-5.25802e-013
-3.97904e-013
-1.10845e-012
-1.10845e-012
-1.27898e-012
-4.12115e-013
-8.81073e-013
-1.3074e-012
-9.09495e-013
-4.83169e-013
9.80549e-013
2.11742e-012
2.95586e-012
3.46745e-012
2.359e-012
1.36424e-012
9.23706e-013
1.42109e-013
-4.68958e-013
-8.3844e-013
-1.7053e-013
-9.23706e-013
-2.13163e-012
-2.04636e-012
-2.089e-012
-9.37916e-013
-2.089e-012
-2.51532e-012
-2.67164e-012
-2.98428e-012
-2.01794e-012
-9.66338e-013
-8.10019e-013
1.42109e-014
-2.27374e-013
-2.41585e-013
6.25278e-013
1.63425e-012
8.52651e-013
7.95808e-013
2.25953e-012
2.8848e-012
1.98952e-012
1.87583e-012
1.77636e-012
9.09495e-013
-8.52651e-014
-3.2685e-013
-8.52651e-014
-1.08002e-012
-1.32161e-012
-5.25802e-013
4.12115e-013
1.42109e-012
1.15108e-012
1.1795e-012
4.83169e-013
1.46372e-012
2.07478e-012
2.13163e-012
1.15108e-012
2.55795e-013
-2.84217e-014
-4.9738e-013
7.10543e-014
-3.83693e-013
-1.84741e-013
-2.98428e-013
-3.69482e-013
-2.84217e-013
-9.80549e-013
1.42109e-013
-3.97904e-013
-4.26326e-013
7.53175e-013
8.2423e-013
1.36424e-012
1.35003e-012
9.9476e-013
9.23706e-013
9.37916e-013
5.96856e-013
7.53175e-013
1.08002e-012
1.49214e-012
1.00897e-012
1.74794e-012
1.63425e-012
1.46372e-012
2.01794e-012
1.74794e-012
2.33058e-012
3.43903e-012
4.20641e-012
3.05533e-012
1.47793e-012
1.49214e-012
5.68434e-014
-3.41061e-013
-6.6791e-013
2.41585e-013
5.54223e-013
-4.12115e-013
-1.40687e-012
-5.54223e-013
-9.9476e-014
2.13163e-013
7.10543e-014
-5.40012e-013
-7.95808e-013
-7.53175e-013
-1.29319e-012
-1.62004e-012
-1.49214e-012
-1.52056e-012
-1.23634e-012
-4.40536e-013
-9.9476e-014
1.42109e-013
-3.41061e-013
-4.68958e-013
6.6791e-013
5.68434e-013
1.12266e-012
1.32161e-012
1.60583e-012
2.67164e-012
2.17426e-012
2.18847e-012
1.26477e-012
2.70006e-013
-1.33582e-012
-1.16529e-012
-1.84741e-013
5.68434e-013
-2.27374e-013
6.39488e-013
1.16529e-012
1.87583e-012
1.97531e-012
2.72848e-012
2.359e-012
1.79057e-012
6.11067e-013
8.95284e-013
5.68434e-014
4.68958e-013
3.12639e-013
3.69482e-013
1.06581e-012
1.93268e-012
1.27898e-012
1.23634e-012
1.20792e-012
3.41061e-013
-5.40012e-013
-4.12115e-013
-3.70903e-012
-1.38982e-011
-6.18456e-011
-2.70859e-010
-1.15969e-009
-4.84179e-009
-1.9644e-008
-7.73469e-008
-2.95134e-007
-1.08954e-006
-3.88418e-006
-1.33431e-005
-4.40581e-005
-0.000139414
-0.000421222
-0.00120958
-0.00328119
-0.00833696
-0.0195873
-0.0416334
-0.0765609
-0.106676
-0.0409383
0.310491
1.41773
4.27174
10.4385
21.9362
40.6101
66.7229
97.9687
131.542
165.438
198.299
229.249
257.712
283.525
306.163
326.645
343.575
357.35
371.234
380.853
386.562
393.003
400.114
403.028
402.441
400.14
401.637
403.84
404.624
404.873
403.281
395.796
365.571
329.59
302.048
282.988
271.109
263.857
259.122
255.954
253.386
250.457
247.179
240.588
221.323
149.952
53.987
13.9338
2.68169
0.465422
0.0788689
0.0132422
0.00220587
0.000364481
5.97254e-005
9.70603e-006
1.56469e-006
2.50317e-007
3.97602e-008
6.27391e-009
9.84125e-010
1.53634e-010
2.39329e-011
3.78364e-012
6.50147e-013
1.68754e-013
-1.42109e-014
-9.9476e-014
-1.49214e-013
-1.22569e-013
4.9738e-014
2.2915e-013
8.70415e-014
7.81597e-014
3.55271e-015
5.68434e-014
8.17124e-014
1.54543e-013
7.99361e-014
2.23821e-013
1.20792e-013
1.3145e-013
2.84217e-013
1.29674e-013
-7.4607e-014
-7.4607e-014
1.06581e-014
1.66978e-013
2.30926e-013
2.84217e-013
1.79412e-013
1.82965e-013
1.06581e-014
7.10543e-014
-9.76996e-014
-2.62901e-013
-4.9738e-014
1.68754e-013
3.09086e-013
2.78888e-013
3.4639e-013
1.47438e-013
-1.77636e-014
8.88178e-015
-1.5099e-013
-1.08358e-013
-2.16716e-013
-3.78364e-013
-1.75859e-013
-1.22569e-013
-1.04805e-013
-5.32907e-014
-7.10543e-015
-4.79616e-014
1.5099e-013
2.13163e-013
1.98952e-013
1.98952e-013
1.7053e-013
1.98952e-013
1.13687e-013
5.68434e-014
1.7053e-013
1.13687e-013
1.13687e-013
1.42109e-013
1.42109e-013
1.7053e-013
1.98952e-013
1.98952e-013
1.7053e-013
1.42109e-013
1.42109e-013
1.7053e-013
1.13687e-013
1.7053e-013
1.7053e-013
1.7053e-013
1.7053e-013
1.42109e-013
1.42109e-013
1.42109e-013
1.13687e-013
1.42109e-013
1.98952e-013
1.98952e-013
1.7053e-013
1.98952e-013
1.7053e-013
1.13687e-013
1.7053e-013
1.42109e-013
1.7053e-013
1.98952e-013
1.7053e-013
1.42109e-013
1.98952e-013
1.7053e-013
1.7053e-013
1.7053e-013
1.7053e-013
1.98952e-013
1.98952e-013
2.27374e-013
1.98952e-013
2.27374e-013
1.98952e-013
1.7053e-013
1.7053e-013
1.7053e-013
1.98952e-013
1.7053e-013
1.7053e-013
2.27374e-013
1.98952e-013
1.7053e-013
1.98952e-013
1.42109e-013
1.7053e-013
1.7053e-013
1.98952e-013
2.27374e-013
2.27374e-013
2.55795e-013
1.98952e-013
2.27374e-013
2.55795e-013
1.98952e-013
1.98952e-013
2.27374e-013
1.7053e-013
1.7053e-013
1.98952e-013
2.27374e-013
2.27374e-013
2.27374e-013
2.55795e-013
2.27374e-013
1.98952e-013
1.7053e-013
1.98952e-013
2.55795e-013
2.55795e-013
2.84217e-013
2.55795e-013
2.27374e-013
2.55795e-013
2.27374e-013
3.12639e-013
3.41061e-013
3.97904e-013
3.41061e-013
3.69482e-013
3.69482e-013
3.12639e-013
2.84217e-013
3.4639e-014
4.92661e-016
3.28626e-014
6.50955e-016
2.30926e-014
1.8774e-015
7.99361e-015
-6.49654e-016
7.10543e-015
-6.37511e-017
3.55271e-015
-8.41775e-016
7.99361e-015
5.97612e-016
2.66454e-015
-4.50161e-016
2.04281e-014
1.64799e-016
-7.99361e-015
9.7318e-016
-1.33227e-014
-6.25801e-016
7.99361e-015
8.93383e-017
1.86517e-014
2.51969e-016
1.77636e-015
1.86916e-016
-1.06581e-014
5.42101e-017
-1.77636e-015
-6.51822e-016
-9.76996e-015
3.85976e-017
6.21725e-015
-4.18068e-016
1.68754e-014
2.81025e-016
2.13163e-014
1.43115e-016
1.33227e-014
-8.0231e-017
2.66454e-015
5.09575e-016
-2.22045e-014
-1.98192e-016
-1.68754e-014
-6.16261e-016
-2.84217e-014
1.70003e-016
-2.39808e-014
-5.92842e-016
-1.95399e-014
3.85976e-016
-9.76996e-015
-1.45066e-015
-3.73035e-014
1.39212e-016
-4.52971e-014
-9.74481e-016
-3.55271e-014
-4.04191e-016
-3.90799e-014
-2.91e-016
-7.01661e-014
-3.46077e-016
-4.61853e-014
-1.13928e-015
-5.50671e-014
-4.08527e-016
-8.34888e-014
-9.34149e-016
-7.4607e-014
-3.87277e-016
-4.79616e-014
-3.10516e-016
-3.37508e-014
-1.29671e-016
-2.13163e-014
-2.78423e-016
-1.95399e-014
-2.09902e-016
-1.59872e-014
1.19262e-016
1.77636e-015
2.02529e-016
2.66454e-014
5.1131e-016
2.22045e-014
5.90673e-016
5.50671e-014
3.82073e-016
4.26326e-014
7.08635e-016
6.83897e-014
6.9866e-016
9.41469e-014
8.76903e-016
8.61533e-014
4.12864e-016
7.01661e-014
9.96165e-016
7.54952e-014
1.47451e-017
7.63833e-014
2.27682e-016
7.4607e-014
7.16441e-016
3.73035e-014
-1.12323e-016
2.39808e-014
1.6263e-016
-2.57572e-014
-1.48753e-016
-2.04281e-014
-2.36356e-016
1.77636e-014
-7.11237e-017
1.77636e-014
-1.17094e-017
-1.59872e-014
-2.16407e-016
1.5099e-014
3.24827e-016
-1.59872e-014
-1.47451e-016
-2.66454e-014
-4.36283e-016
-6.21725e-015
3.77302e-016
1.77636e-015
-6.85216e-017
7.10543e-015
-1.06685e-016
3.64153e-014
1.63064e-016
4.88498e-014
1.82146e-017
3.73035e-014
6.93889e-018
2.13163e-014
-3.747e-016
-1.06581e-014
3.49547e-016
-3.4639e-014
-1.01915e-016
2.66454e-015
-3.35669e-016
9.76996e-015
-2.53703e-016
2.4869e-014
-3.09214e-016
2.93099e-014
-6.46184e-017
2.22045e-014
-3.27863e-016
7.99361e-015
9.54098e-018
-3.9968e-014
-3.20924e-016
-3.55271e-015
-1.72171e-016
-1.77636e-015
-2.60209e-017
-3.55271e-014
-3.40006e-016
-2.57572e-014
-4.06359e-016
7.10543e-015
-2.58474e-016
-3.28626e-014
-1.15793e-016
-1.42109e-014
-5.30392e-016
-4.35207e-014
1.0842e-017
-1.68754e-014
-2.90566e-016
-4.61853e-014
-3.2396e-016
-5.59552e-014
-2.41127e-016
-4.52971e-014
-3.30031e-016
-2.13163e-014
-1.75207e-016
-3.19744e-014
-2.09034e-016
-5.32907e-014
-1.77375e-016
-4.44089e-014
-2.08167e-016
-3.01981e-014
-1.86049e-016
-3.4639e-014
-4.98733e-017
-2.57572e-014
-2.64112e-016
-8.88178e-015
-5.81132e-017
-1.86517e-014
-4.07226e-016
-3.55271e-014
-9.97466e-017
-4.26326e-014
-2.37657e-016
-2.13163e-014
-5.94143e-017
-1.15463e-014
-1.85182e-016
1.15463e-014
-1.24466e-016
6.57252e-014
-1.22732e-016
3.81917e-014
-2.48065e-016
3.01981e-014
-4.14599e-016
4.9738e-014
-1.63498e-016
4.61853e-014
-4.63171e-016
4.70735e-014
-1.02349e-016
2.39808e-014
-3.18322e-016
1.95399e-014
-2.2855e-016
5.24025e-014
-1.87784e-016
3.37508e-014
-3.39572e-016
2.13163e-014
1.0018e-016
5.32907e-014
-2.67147e-016
3.01981e-014
-1.21864e-016
4.9738e-014
-2.64545e-017
1.24345e-014
-3.38271e-016
2.84217e-014
-1.04083e-017
0
-2.67147e-016
-4.44089e-014
1.249e-016
-4.9738e-014
1.37477e-016
-5.32907e-014
-2.34188e-017
-8.88178e-015
9.32414e-017
5.32907e-015
-5.46438e-017
-3.90799e-014
1.25767e-017
-4.9738e-014
1.24033e-016
0
8.1532e-017
-5.50671e-014
2.10335e-016
-1.59872e-014
-1.36176e-016
-1.77636e-014
3.51282e-017
1.59872e-014
-2.04264e-016
-4.9738e-014
-1.84748e-016
-6.39488e-014
-2.81893e-017
-4.44089e-014
-2.50668e-016
-7.10543e-015
1.39212e-016
-1.95399e-014
-7.78891e-016
3.55271e-015
6.20164e-017
2.13163e-014
-6.71338e-016
3.19744e-014
-1.45283e-016
-1.42109e-014
-3.40439e-016
-4.9738e-014
7.50268e-017
-1.3145e-013
-3.81639e-017
-1.26121e-013
2.45897e-016
-1.10134e-013
4.80952e-016
-1.61648e-013
3.13118e-016
6.05418e-016
2.84217e-013
4.01457e-013
2.62901e-013
2.98428e-013
3.05533e-013
2.4869e-013
2.4869e-013
3.2685e-013
1.42109e-013
-1.42109e-014
1.06581e-014
6.03961e-014
8.88178e-014
-1.03029e-013
-8.88178e-014
-6.03961e-014
-2.4869e-014
-7.10543e-015
3.90799e-014
5.32907e-014
7.81597e-014
-1.06581e-013
-1.27898e-013
-9.9476e-014
8.17124e-014
7.10543e-014
1.7053e-013
2.16716e-013
1.38556e-013
9.23706e-014
1.98952e-013
3.76588e-013
3.23297e-013
3.76588e-013
3.23297e-013
2.84217e-013
1.59872e-013
7.81597e-014
1.52767e-013
1.91847e-013
2.30926e-013
1.77636e-014
-2.4869e-014
-9.59233e-014
-1.56319e-013
-1.91847e-013
-2.02505e-013
-1.24345e-013
-1.63425e-013
-1.20792e-013
-2.20268e-013
-2.02505e-013
-2.45137e-013
-1.74083e-013
-4.26326e-014
2.13163e-014
3.90799e-014
-2.84217e-014
1.35003e-013
-1.42109e-014
-3.90799e-014
-1.38556e-013
-9.59233e-014
-8.17124e-014
-1.1724e-013
-4.26326e-014
-3.55271e-014
-7.10543e-015
7.10543e-014
-1.10134e-013
-2.55795e-013
-2.0961e-013
-2.16716e-013
-1.42109e-013
-1.52767e-013
-5.68434e-014
2.13163e-014
-8.52651e-014
-1.63425e-013
-1.66978e-013
-1.74083e-013
-1.38556e-013
-2.4869e-014
-7.81597e-014
-6.39488e-014
-6.75016e-014
-6.75016e-014
-8.88178e-014
-6.03961e-014
1.42109e-014
3.55271e-015
7.10543e-015
2.84217e-014
-6.39488e-014
-7.4607e-014
-3.19744e-014
3.55271e-015
-8.88178e-014
-4.26326e-014
-1.77636e-014
4.26326e-014
1.27898e-013
8.17124e-014
7.10543e-014
-2.84217e-014
-1.13687e-013
-3.55271e-015
9.9476e-014
1.77636e-013
1.63425e-013
2.45137e-013
2.66454e-013
1.24345e-013
3.19744e-014
1.03029e-013
1.42109e-014
-2.4869e-014
-1.06581e-013
-6.39488e-014
-5.68434e-014
-9.59233e-014
-1.06581e-014
-7.81597e-014
-7.63833e-014
-7.81597e-014
1.42109e-014
-4.79616e-014
-4.08562e-014
-9.59233e-014
-1.77636e-013
-2.61124e-013
-2.02505e-013
-1.27898e-013
-1.1191e-013
-7.63833e-014
-7.81597e-014
3.19744e-014
8.52651e-014
1.81188e-013
2.36255e-013
1.7053e-013
1.40332e-013
5.32907e-014
-5.86198e-014
3.55271e-014
6.03961e-014
4.26326e-014
8.17124e-014
6.39488e-014
)
;

boundaryField
{
    inlet
    {
        type            calculated;
        value           nonuniform List<scalar> 2(3.04484e-012 -1.54079e-013);
    }
    outlet
    {
        type            calculated;
        value           nonuniform List<scalar> 2(-1.7439e-014 -1.74991e-013);
    }
    bottom
    {
        type            symmetryPlane;
        value           uniform 0;
    }
    top
    {
        type            symmetryPlane;
        value           uniform 0;
    }
    obstacle
    {
        type            calculated;
        value           nonuniform List<scalar> 
102
(
2.28964e-014
-3.77234e-014
1.46286e-031
7.94446e-046
3.1966e-060
1.01256e-074
2.72987e-089
9.80056e-104
4.03242e-118
1.8413e-132
7.93452e-147
3.33202e-161
1.46872e-175
6.4536e-190
2.81456e-204
1.06931e-218
4.67128e-233
1.76542e-247
6.06233e-262
1.97953e-276
5.3994e-291
1.60207e-305
4.94066e-320
0
0
0
0
0
0
0
0
0
0
0
0
0
0
0
0
0
0
0
0
0
0
0
0
0
0
0
0
0
0
0
0
0
0
0
0
0
0
0
0
0
0
0
0
0
0
0
0
0
0
0
0
0
0
0
0
0
0
0
0
0
0
0
0
0
0
0
0
0
0
0
0
0
0
0
6.06263e-081
2.32741e-065
4.46741e-050
1.71502e-034
)
;
    }
    defaultFaces
    {
        type            empty;
        value           nonuniform 0();
    }
}


// ************************************************************************* //
