/*--------------------------------*- C++ -*----------------------------------*\
| =========                 |                                                 |
| \\      /  F ield         | OpenFOAM: The Open Source CFD Toolbox           |
|  \\    /   O peration     | Version:  5.x                                   |
|   \\  /    A nd           | Web:      www.OpenFOAM.org                      |
|    \\/     M anipulation  |                                                 |
\*---------------------------------------------------------------------------*/
/*   Windows 32 and 64 bit porting by blueCAPE: http://www.bluecape.com.pt   *\
|  Based on Windows porting (2.0.x v4) by Symscape: http://www.symscape.com   |
\*---------------------------------------------------------------------------*/
FoamFile
{
    version     2.0;
    format      ascii;
    class       volVectorField;
    location    "0.001";
    object      U;
}
// * * * * * * * * * * * * * * * * * * * * * * * * * * * * * * * * * * * * * //

dimensions      [0 1 -1 0 0 0 0];

internalField   nonuniform List<vector> 
1000
(
(1.1089e-013 5.56925e-014 0)
(-5.70669e-013 1.01714e-014 0)
(-3.02402e-013 2.75998e-014 0)
(-4.15065e-013 2.99056e-015 -2.97086e-018)
(-2.4958e-013 1.97328e-014 2.97764e-018)
(-5.07593e-014 -1.82759e-014 0)
(-2.58158e-013 2.50928e-014 0)
(-2.79312e-013 -1.30783e-014 5.99635e-018)
(1.02882e-013 1.81501e-014 -6.01017e-018)
(-4.64718e-013 -2.29927e-014 6.02405e-018)
(4.56328e-013 2.20329e-014 -6.03799e-018)
(1.19431e-013 -2.79223e-015 0)
(5.02037e-013 -1.47569e-014 0)
(-8.03322e-014 -3.3663e-014 0)
(-4.13687e-013 -2.55619e-014 0)
(-1.986e-013 -4.1251e-014 -1.22174e-017)
(-2.9685e-013 -9.24547e-015 1.22461e-017)
(-1.75916e-013 1.44157e-014 0)
(-7.16985e-013 3.63822e-014 0)
(-5.46814e-013 4.5262e-014 0)
(1.41293e-014 6.63688e-014 -4.82896e-020)
(1.08788e-013 5.97698e-014 1.23915e-017)
(8.35188e-014 5.99121e-014 -2.4842e-017)
(2.3929e-013 7.12828e-014 1.24507e-017)
(4.10791e-013 5.6011e-014 1.24804e-017)
(-1.40544e-013 3.96166e-014 -1.25104e-017)
(6.48933e-014 6.44331e-014 2.50809e-017)
(2.27048e-013 3.37441e-014 0)
(-2.28752e-014 5.25883e-014 -2.52021e-017)
(7.74277e-013 -2.91393e-015 2.52631e-017)
(-8.47588e-014 1.56672e-014 -2.53244e-017)
(1.10519e-013 -1.33096e-015 2.5386e-017)
(-6.10365e-013 -4.96324e-014 -2.54479e-017)
(4.70454e-014 -1.06997e-014 0)
(-7.23667e-013 -8.07128e-014 -2.55727e-017)
(-2.3309e-013 -3.73643e-014 2.56355e-017)
(-8.17841e-013 -9.13503e-014 0)
(-7.00832e-013 -4.1871e-014 0)
(-7.91763e-014 -4.19746e-014 0)
(4.54654e-013 -2.03607e-014 -2.589e-017)
(2.78428e-013 -4.08227e-014 2.59544e-017)
(4.34516e-013 -2.4009e-014 5.08185e-020)
(5.49109e-013 -4.07533e-014 5.09456e-020)
(6.8683e-013 -2.0839e-014 0)
(-7.67964e-014 -8.02668e-014 0)
(3.07908e-013 -2.75579e-014 5.13305e-020)
(1.46132e-013 -6.10567e-014 -5.14602e-020)
(1.19185e-013 -4.21001e-014 5.15904e-020)
(8.0174e-013 -9.7187e-015 5.17214e-020)
(4.09554e-013 -1.58679e-014 -2.66006e-017)
(2.11797e-013 -3.32122e-014 2.66684e-017)
(-3.3388e-013 -1.00731e-013 5.21182e-020)
(-1.10369e-013 -4.62866e-014 -5.22519e-020)
(2.49694e-013 -5.17493e-014 5.23862e-020)
(5.35287e-013 -4.73711e-014 5.25212e-020)
(2.25435e-013 -8.31137e-014 -5.26569e-020)
(-1.36047e-013 -1.20459e-013 -2.69774e-017)
(-8.3581e-014 -1.16509e-013 2.71533e-017)
(-2.61564e-013 -1.11399e-013 -5.30683e-020)
(6.03619e-014 -8.42674e-014 5.32068e-020)
(-3.53775e-013 -1.18856e-013 5.33461e-020)
(-7.66479e-013 -1.53626e-013 -5.34862e-020)
(-2.03119e-013 -8.11898e-014 5.49676e-017)
(-3.50207e-013 -1.2124e-013 -1.10064e-016)
(-2.9815e-013 -6.88845e-014 5.51506e-017)
(-4.25104e-013 -7.25496e-014 -5.52969e-017)
(-1.0199e-012 -1.24244e-013 1.1105e-016)
(-7.51118e-013 -7.61457e-014 -5.57005e-017)
(9.02991e-014 -2.01843e-014 5.44872e-020)
(-2.89644e-014 -1.14391e-014 5.46333e-020)
(4.96659e-013 1.76459e-014 -5.61497e-017)
(-1.13533e-013 -6.48761e-014 5.6301e-017)
(4.6558e-013 7.06696e-014 5.50763e-020)
(2.48736e-013 -3.0242e-014 -5.52255e-020)
(7.87053e-013 1.84323e-014 5.53756e-020)
(7.2354e-013 -1.28185e-014 5.55265e-020)
(4.42906e-013 1.1359e-014 -5.56782e-020)
(8.67089e-013 1.64856e-014 5.58307e-020)
(-2.46273e-013 -1.11208e-013 -5.72718e-017)
(5.07391e-013 -4.21947e-015 5.74295e-017)
(2.7627e-013 -6.61869e-014 5.62934e-020)
(-2.27371e-013 -1.03344e-013 -5.77477e-017)
(3.96383e-013 -2.37044e-014 5.79081e-017)
(5.15025e-014 -4.08363e-014 0)
(7.49293e-014 -5.62304e-014 0)
(-1.75082e-013 -9.25497e-014 5.85089e-017)
(2.84268e-015 -2.98097e-014 -5.8616e-017)
(-5.71023e-013 -1.1865e-013 0)
(-5.58285e-013 -1.22694e-013 0)
(-2.51449e-013 -7.53126e-014 0)
(-1.31861e-013 -5.37699e-014 5.78927e-020)
(-8.49757e-014 -2.61823e-014 -5.93929e-017)
(-1.63677e-013 -3.18837e-014 5.96209e-017)
(-2.16458e-013 -2.75863e-014 5.97917e-017)
(-3.7268e-013 -7.19934e-014 -5.99635e-017)
(-2.9302e-013 -5.67517e-014 0)
(-5.47498e-013 -3.9841e-014 6.0369e-017)
(-2.56804e-013 -2.06125e-014 -6.04259e-017)
(-5.48773e-013 -3.49841e-014 -6.06608e-017)
(-1.05416e-012 -4.4974e-014 1.21675e-016)
(-4.28722e-013 3.19897e-015 -6.10155e-017)
(-5.30942e-013 1.79668e-014 0)
(1.15941e-013 9.2994e-014 5.99359e-020)
(-5.19249e-013 2.51728e-014 6.01128e-020)
(9.43333e-014 7.08865e-014 6.17376e-017)
(3.16121e-013 1.42194e-013 9.01066e-033)
(3.37128e-013 1.335e-013 -6.21051e-017)
(4.6693e-013 1.28673e-013 -6.22904e-017)
(2.59816e-013 1.22835e-013 6.2538e-017)
(3.89898e-013 8.37784e-014 6.11959e-020)
(9.62852e-014 2.86693e-014 0)
(-1.48965e-013 1.7518e-014 0)
(5.72717e-013 1.30623e-013 0)
(2.79955e-014 3.35863e-014 0)
(1.09863e-014 -4.20274e-014 0)
(6.15046e-013 1.44535e-013 6.23187e-020)
(3.9783e-013 5.13464e-014 -6.39476e-017)
(-4.74438e-014 -5.1841e-014 6.42071e-017)
(1.139e-013 -2.12731e-014 6.44681e-017)
(2.09262e-013 -1.69357e-015 9.40121e-033)
(-6.33579e-013 -1.52895e-013 -6.48053e-017)
(3.44616e-013 -1.1588e-014 6.34836e-020)
(1.14298e-013 -4.44457e-014 6.36819e-020)
(2.99663e-013 3.42962e-016 0)
(3.48169e-013 5.50464e-015 6.56204e-017)
(-3.62878e-013 -1.78775e-013 -1.31655e-016)
(5.33045e-013 5.98956e-014 6.59713e-017)
(6.29208e-013 3.36897e-014 6.63101e-017)
(9.53873e-013 3.69328e-014 -6.63915e-017)
(4.25101e-013 2.55161e-014 0)
(1.03878e-012 1.00288e-013 6.68824e-017)
(2.60386e-013 -7.98549e-014 -6.70974e-017)
(3.76652e-013 4.58794e-015 -6.73139e-017)
(-1.12503e-013 -1.29232e-013 6.75977e-017)
(7.47007e-013 8.48952e-014 0)
(-3.10084e-013 -1.97784e-013 0)
(1.68643e-013 -6.1853e-014 0)
(2.93016e-014 -1.22677e-013 0)
(-8.8554e-014 -1.67706e-013 6.86424e-017)
(-8.25726e-014 -1.05433e-013 -6.88017e-017)
(-8.35253e-013 -3.34011e-013 0)
(-3.80554e-013 -2.37347e-013 -6.93266e-017)
(-3.79817e-013 -1.11593e-013 6.96256e-017)
(-4.52941e-013 -2.52838e-013 0)
(-5.62627e-013 -2.29456e-013 0)
(-1.16908e-012 -2.6154e-013 -7.01917e-017)
(-5.81005e-013 -2.10308e-013 1.40995e-016)
(-4.57344e-013 -1.42041e-013 -7.07366e-017)
(-5.97354e-013 -7.03316e-014 0)
(-4.38039e-014 -7.57992e-014 0)
(-4.46869e-013 -1.63358e-013 0)
(-1.54779e-013 1.12788e-015 0)
(-2.46562e-013 -8.41285e-014 1.43912e-016)
(4.26593e-013 1.24926e-013 -7.05129e-020)
(-1.38275e-013 -1.97536e-014 -1.44912e-016)
(3.99213e-013 1.66585e-013 0)
(2.98257e-013 7.26815e-015 0)
(3.4093e-014 7.06332e-014 0)
(5.55162e-013 9.16843e-014 0)
(7.18476e-013 2.12237e-013 -1.47472e-016)
(4.79538e-012 1.29113e-012 1.48067e-016)
(2.1616e-011 6.00402e-012 -7.25204e-020)
(1.02683e-010 2.85234e-011 0)
(4.66095e-010 1.3079e-010 1.49586e-016)
(2.07231e-009 5.87093e-010 -3.00249e-016)
(8.97002e-009 2.56453e-009 1.50666e-016)
(3.78027e-008 1.09066e-008 7.38341e-020)
(1.54913e-007 4.50997e-008 0)
(6.16604e-007 1.81127e-007 -7.43731e-020)
(2.38085e-006 7.05619e-007 -1.52799e-016)
(8.90572e-006 2.66276e-006 1.53361e-016)
(3.22227e-005 9.71881e-006 0)
(0.000112587 3.42521e-005 7.54749e-020)
(0.000379185 0.000116345 -7.57554e-020)
(0.00122845 0.000380101 -7.60381e-020)
(0.00381946 0.00119159 1.56306e-016)
(0.0113671 0.00357508 -8.47828e-020)
(0.0322854 0.0102344 -1.57563e-016)
(0.0872129 0.0278583 7.7184e-020)
(0.223191 0.0718181 0)
(0.538756 0.17457 1.58859e-016)
(1.22105 0.398223 -5.44563e-019)
(2.58711 0.848752 -1.60303e-016)
(5.10366 1.68313 1.58428e-016)
(9.34339 3.09493 -1.60475e-016)
(15.8467 5.26688 -7.82697e-020)
(24.9091 8.29745 -7.80151e-020)
(36.3855 12.1331 0)
(49.6421 16.5522 -7.70475e-020)
(63.818 21.2606 -7.63363e-020)
(78.3346 26.0752 1.40992e-016)
(93.0211 30.9621 -1.47064e-016)
(107.824 35.9241 -1.35101e-016)
(122.705 40.9622 9.12444e-018)
(137.545 46.0431 1.38104e-016)
(152.406 51.1924 0)
(166.982 56.3073 6.76353e-020)
(181.459 61.4411 -6.6717e-020)
(195.615 66.5268 -6.53809e-020)
(209.27 71.4926 0)
(222.516 76.3538 -6.26191e-020)
(235.118 81.0183 -6.18703e-020)
(246.761 85.3762 -1.11311e-016)
(257.346 89.3824 1.15098e-016)
(266.709 92.944 -5.81578e-020)
(274.542 95.9247 5.77836e-020)
(280.298 98.0967 -5.75405e-020)
(283.845 99.4106 0)
(285.491 99.9508 5.63645e-020)
(285.392 99.7237 1.0879e-016)
(284.496 99.0693 -1.09308e-016)
(283.36 98.195 -1.10248e-016)
(282.046 97.1694 1.12094e-016)
(279.621 95.677 -6.07371e-020)
(275.118 93.5205 6.8148e-020)
(269.866 91.6013 0)
(265.307 90.7968 -8.24999e-020)
(261.257 91.0184 8.70152e-020)
(257.185 91.8471 -8.9903e-020)
(253.361 93.187 0)
(249.947 94.8925 9.28144e-020)
(246.33 96.5161 -1.84788e-016)
(241.959 97.7325 1.86513e-016)
(237.014 98.5919 9.40734e-020)
(231.109 98.8735 -9.39753e-020)
(222.606 97.7617 -9.4049e-020)
(206.219 92.5832 9.48844e-020)
(160.35 72.3836 -1.55722e-016)
(78.6223 34.005 3.60234e-016)
(21.679 7.86622 -1.79047e-016)
(4.47016 1.16837 0)
(0.764377 0.105806 -8.04653e-020)
(0.113775 0.00025626 7.83481e-020)
(0.0145547 -0.00285388 -7.81335e-020)
(0.00136384 -0.00107553 0)
(-1.25458e-005 -0.000311425 -1.61215e-016)
(-5.48734e-005 -8.09759e-005 1.61997e-016)
(-1.96251e-005 -1.9305e-005 1.62787e-016)
(-5.36976e-006 -4.39183e-006 -1.63665e-016)
(-1.30878e-006 -9.66175e-007 1.64391e-016)
(-2.99136e-007 -2.07474e-007 -8.07055e-020)
(-6.55525e-008 -4.37049e-008 -1.66027e-016)
(-1.39289e-008 -9.05599e-009 0)
(-2.89091e-009 -1.85019e-009 -8.19226e-020)
(-5.88238e-010 -3.73068e-010 8.23364e-020)
(-1.17828e-010 -7.42907e-011 -1.69564e-016)
(-2.33396e-011 -1.48467e-011 3.40691e-016)
(-4.64045e-012 -2.89811e-012 -1.71136e-016)
(-7.97486e-013 -5.21647e-013 -8.4034e-020)
(-5.23748e-013 -2.22778e-013 -1.73078e-016)
(-2.11509e-013 -2.29351e-013 1.73894e-016)
(-1.61243e-013 -2.864e-014 -8.53539e-020)
(-4.3125e-013 -2.48752e-013 -8.58032e-020)
(-1.26192e-013 -7.03317e-014 8.62572e-020)
(-4.62607e-013 -3.85827e-013 0)
(-3.03862e-013 -9.79964e-014 -1.78631e-016)
(1.63777e-013 1.27933e-013 8.76484e-020)
(-2.40321e-013 -2.52814e-013 1.80386e-016)
(-5.48102e-013 -3.26431e-013 1.81455e-016)
(-4.82009e-014 -4.39413e-014 -1.82358e-016)
(-3.76493e-013 -1.73124e-013 -1.83539e-016)
(-3.21415e-013 -2.17601e-013 1.84373e-016)
(-1.3763e-013 -2.15163e-013 0)
(4.99274e-014 9.59585e-014 1.86433e-016)
(-5.55399e-013 -3.08546e-013 -1.87663e-016)
(-3.3146e-014 -3.89407e-014 1.88723e-016)
(-1.52025e-013 -7.77023e-014 -1.89703e-016)
(2.8035e-013 2.77576e-013 1.90694e-016)
(3.44484e-013 2.6974e-013 9.36931e-020)
(3.61574e-013 2.59916e-013 -1.93087e-016)
(4.55469e-013 3.09132e-013 0)
(6.14163e-013 5.09277e-013 9.53369e-020)
(3.87503e-013 2.47448e-013 -9.58977e-020)
(4.88155e-013 4.07841e-013 1.97464e-016)
(-7.73323e-016 1.26988e-014 -7.22999e-032)
(4.31724e-013 4.12725e-013 -2.00024e-016)
(-1.42729e-013 -6.26112e-015 -9.82084e-020)
(1.61579e-013 -8.42086e-014 2.02449e-016)
(-3.54315e-013 -1.91125e-013 -2.03584e-016)
(3.54979e-013 3.40967e-013 -2.04933e-016)
(6.26377e-014 -2.77227e-013 2.06198e-016)
(-1.18579e-013 1.68864e-013 -1.01258e-019)
(-1.2338e-013 -6.73524e-014 0)
(2.64481e-013 -1.10781e-013 2.10088e-016)
(-3.17828e-013 -3.46218e-014 -4.22733e-016)
(-1.25345e-013 -2.55743e-013 2.12557e-016)
(-4.32973e-013 -1.34652e-013 -2.14024e-016)
(6.22461e-014 -2.97511e-013 2.153e-016)
(-6.59626e-013 -2.95535e-013 -2.16909e-016)
(-5.99314e-014 7.50818e-014 2.18327e-016)
(-3.8845e-013 -4.24304e-013 0)
(-2.30131e-013 -6.01365e-014 2.21003e-016)
(-2.69865e-014 -3.93128e-013 -2.22476e-016)
(-5.90621e-014 -1.61905e-013 -1.09413e-019)
(-2.47778e-013 -2.09939e-013 0)
(-3.99988e-013 -1.65224e-013 -2.27017e-016)
(1.61297e-013 2.16562e-013 4.57254e-016)
(1.52931e-013 -1.0186e-014 -2.3026e-016)
(-3.5946e-014 -1.8804e-013 1.13213e-019)
(1.34652e-013 2.32581e-013 -1.14004e-019)
(-1.23055e-012 3.49862e-014 0)
(-1.09879e-012 2.00301e-014 0)
(-5.24601e-013 1.9101e-014 0)
(-7.3539e-013 -3.00404e-016 0)
(-3.12006e-013 2.86506e-014 0)
(9.58749e-014 -1.27334e-014 0)
(-5.31402e-013 2.40866e-014 0)
(-1.52995e-013 -5.82695e-015 0)
(-9.11984e-013 2.28294e-014 0)
(2.8611e-014 -2.13092e-014 0)
(-2.5716e-013 1.83048e-014 0)
(-6.13521e-013 -7.28259e-015 0)
(-2.56486e-013 -2.38971e-014 0)
(-4.98069e-013 -2.44588e-014 0)
(1.37382e-013 -2.01336e-014 0)
(6.86013e-013 -3.51877e-014 0)
(7.98517e-013 -7.38274e-016 0)
(1.40148e-012 1.34191e-014 0)
(1.12161e-012 4.78629e-014 0)
(8.42469e-013 5.11835e-014 0)
(5.02945e-013 6.99188e-014 2.73601e-020)
(1.4083e-014 7.42291e-014 0)
(1.31271e-013 6.21193e-014 0)
(-6.64871e-013 6.75991e-014 0)
(2.33807e-013 4.53002e-014 0)
(-4.24981e-013 5.32685e-014 0)
(-2.70518e-013 5.9613e-014 0)
(-1.27166e-012 2.31449e-014 0)
(-6.00123e-013 5.43716e-014 0)
(-5.94707e-013 -1.4374e-014 0)
(-4.31538e-013 1.63857e-014 0)
(-8.43435e-013 -5.648e-015 0)
(-1.25891e-012 -2.16953e-014 0)
(-8.78262e-013 -1.05449e-014 0)
(-1.49576e-012 -4.38571e-014 0)
(-1.3832e-013 -1.729e-014 0)
(-4.05222e-013 -5.4682e-014 0)
(-1.83958e-014 -2.01204e-014 0)
(-1.19421e-013 -3.10036e-014 0)
(1.00921e-013 -4.20025e-014 0)
(-3.75683e-013 -5.4119e-014 0)
(9.79202e-013 -5.30496e-014 -2.66341e-020)
(-9.13987e-015 -5.99804e-014 -2.66005e-020)
(8.94579e-013 -4.94928e-014 0)
(-2.00571e-013 -8.03424e-014 0)
(1.60255e-012 -3.69907e-014 -2.65002e-020)
(1.00943e-012 -6.76364e-014 2.64669e-020)
(2.36147e-013 -4.49871e-014 -2.64338e-020)
(1.35161e-012 -4.63481e-014 -2.64007e-020)
(5.43591e-014 -4.85551e-014 2.63676e-020)
(5.15766e-013 -5.42912e-014 -2.63347e-020)
(-4.97048e-013 -5.88833e-014 -2.63018e-020)
(8.12338e-014 -4.16041e-014 2.62691e-020)
(-5.40885e-014 -8.49358e-014 -2.62364e-020)
(-8.46333e-013 -6.4713e-014 -2.62038e-020)
(-1.16901e-013 -9.73704e-014 2.61712e-020)
(-1.43699e-013 -1.04547e-013 -2.61388e-020)
(3.76744e-013 -1.14649e-013 -2.61064e-020)
(5.28581e-013 -7.95111e-014 2.60741e-020)
(4.47396e-013 -8.71025e-014 -2.60419e-020)
(4.11097e-013 -9.14635e-014 -2.60098e-020)
(1.78518e-014 -8.67484e-014 2.59777e-020)
(9.62808e-013 -6.17078e-014 -2.59457e-020)
(8.45874e-013 -7.95789e-014 -2.59139e-020)
(5.06901e-013 -4.50208e-014 2.5882e-020)
(2.30934e-013 -3.81653e-014 -2.58503e-020)
(-8.87122e-015 -2.99404e-014 -2.58186e-020)
(2.65811e-014 -1.55056e-014 2.57871e-020)
(-3.36283e-013 -1.97732e-014 -2.57556e-020)
(3.35872e-013 -7.04337e-015 -2.57241e-020)
(-4.67882e-013 -2.68977e-014 2.56928e-020)
(2.29248e-013 -3.33401e-014 -2.56615e-020)
(-4.22712e-013 -9.76971e-015 -2.56303e-020)
(2.02304e-013 -5.20877e-014 2.55992e-020)
(-4.39257e-013 -3.80232e-014 -2.55681e-020)
(-3.15882e-013 -5.78569e-014 -2.55372e-020)
(3.59319e-013 -5.36788e-014 2.55063e-020)
(-5.07691e-013 -8.01473e-014 -2.54754e-020)
(1.31141e-013 -8.5105e-014 -2.54447e-020)
(2.61966e-013 -5.82601e-014 2.5414e-020)
(6.01795e-013 -9.71649e-014 -2.53834e-020)
(2.61336e-013 -6.64228e-014 -2.53529e-020)
(5.65547e-013 -7.28685e-014 2.53224e-020)
(3.38921e-013 -6.80286e-014 0)
(3.64554e-013 -6.88964e-014 0)
(1.7339e-013 -6.08218e-014 -2.52315e-020)
(2.9441e-013 -3.72071e-014 0)
(3.20005e-013 -6.71631e-014 0)
(4.66477e-013 -2.91548e-014 0)
(4.91806e-013 -3.10075e-014 0)
(4.65367e-013 -3.52795e-014 -2.50814e-020)
(6.02536e-013 -3.9138e-014 -2.50516e-020)
(4.64262e-013 -1.51799e-014 0)
(6.78393e-013 -5.76956e-015 0)
(8.8344e-013 -7.63897e-015 0)
(5.0545e-013 -2.67717e-015 0)
(1.20651e-012 3.20881e-014 -2.49036e-020)
(1.38457e-012 1.69599e-014 -2.48742e-020)
(1.39147e-012 5.2287e-014 0)
(6.22442e-013 7.67394e-014 0)
(5.9616e-013 9.16863e-014 0)
(3.65783e-013 9.02494e-014 0)
(-3.05877e-013 8.68246e-014 -2.47284e-020)
(-2.54599e-014 1.04757e-013 -2.46994e-020)
(-2.54301e-013 6.74163e-014 0)
(3.30205e-013 8.40065e-014 0)
(1.86052e-013 7.67729e-014 0)
(-5.57506e-013 7.62875e-014 0)
(-2.53116e-013 4.78548e-014 -2.45555e-020)
(-1.76975e-013 4.91159e-014 -2.4527e-020)
(6.73408e-014 3.98521e-014 0)
(2.01788e-013 3.12666e-014 0)
(-2.1835e-013 3.21489e-014 0)
(-1.0066e-013 1.97913e-014 0)
(-3.18389e-013 7.46224e-015 0)
(-3.76604e-013 1.17689e-015 -2.43569e-020)
(-2.67498e-013 -1.44982e-014 -2.43288e-020)
(-8.43318e-013 -2.84411e-014 0)
(-3.00242e-013 -2.72355e-014 -2.42728e-020)
(-7.49743e-013 -5.37576e-014 0)
(-1.08172e-013 -3.48438e-014 0)
(-8.31136e-014 -6.80493e-014 -2.41892e-020)
(-5.81128e-014 -6.18746e-014 -2.41615e-020)
(2.23893e-013 -6.47838e-014 0)
(-3.89294e-013 -7.48045e-014 0)
(8.27339e-014 -9.83757e-014 0)
(2.64446e-013 -6.17213e-014 2.40512e-020)
(1.98109e-013 -9.24765e-014 -2.40238e-020)
(6.59611e-013 -1.00745e-013 -2.39965e-020)
(1.89422e-013 -1.07708e-013 0)
(1.0283e-012 -1.01288e-013 0)
(8.95661e-013 -1.24026e-013 0)
(6.73036e-013 -1.05162e-013 0)
(6.55878e-013 -1.04018e-013 -2.38607e-020)
(4.01271e-013 -8.21479e-014 0)
(-2.94478e-013 -1.25511e-013 0)
(-5.14756e-013 -9.88147e-014 0)
(-3.91753e-013 -1.25993e-013 0)
(3.5055e-013 -1.36679e-013 0)
(-1.22148e-013 -1.2342e-013 -2.36997e-020)
(-2.44021e-014 -1.2379e-013 0)
(3.9812e-013 -9.78797e-014 0)
(5.11295e-013 -1.01447e-013 -2.36201e-020)
(5.4315e-013 -8.46138e-014 0)
(9.87913e-013 -6.51608e-014 0)
(7.76506e-013 -5.5862e-014 -2.3541e-020)
(8.32197e-013 -3.54744e-014 0)
(1.53341e-013 1.89154e-015 0)
(3.5471e-013 -2.27992e-014 0)
(1.53e-013 -1.63569e-015 0)
(-1.12612e-013 -7.54097e-015 0)
(3.37461e-013 2.43554e-014 0)
(-2.40776e-014 -2.69619e-014 0)
(1.92408e-013 1.82888e-014 2.33325e-020)
(6.00609e-013 -1.97701e-014 0)
(6.95937e-013 1.17489e-014 0)
(1.678e-013 -1.36087e-014 0)
(4.70917e-013 8.60522e-015 0)
(5.34182e-013 -1.86864e-015 0)
(-3.02636e-013 -1.90392e-014 0)
(-4.77321e-014 -3.15728e-014 -2.31531e-020)
(-4.13225e-013 -9.98295e-014 2.31277e-020)
(-2.302e-012 -5.92987e-013 0)
(-9.77674e-012 -2.67946e-012 0)
(-4.32858e-011 -1.21904e-011 0)
(-1.87362e-010 -5.43531e-011 0)
(-7.91987e-010 -2.35824e-010 -2.30016e-020)
(-3.25959e-009 -9.96756e-010 0)
(-1.30268e-008 -4.09783e-009 2.29515e-020)
(-5.04906e-008 -1.6369e-008 -2.29265e-020)
(-1.89502e-007 -6.34538e-008 2.29016e-020)
(-6.87511e-007 -2.38392e-007 0)
(-2.40626e-006 -8.66758e-007 -2.28519e-020)
(-8.10577e-006 -3.04504e-006 2.28272e-020)
(-2.62089e-005 -1.03186e-005 2.28024e-020)
(-8.10728e-005 -3.36624e-005 0)
(-0.000238944 -0.000105495 2.27525e-020)
(-0.000667455 -0.000316833 2.27266e-020)
(-0.00175447 -0.000909408 -2.26985e-020)
(-0.00429487 -0.00248697 0)
(-0.0096287 -0.00645715 2.26196e-020)
(-0.0191516 -0.0158555 -2.25493e-020)
(-0.0310748 -0.0366695 2.24329e-020)
(-0.0311548 -0.079554 0)
(0.0184243 -0.161324 -2.19321e-020)
(0.218934 -0.305212 2.14797e-020)
(0.799354 -0.537915 2.08756e-020)
(2.16879 -0.883346 0)
(4.92962 -1.35441 1.93655e-020)
(9.77614 -1.94595 1.86023e-020)
(17.1908 -2.63469 -1.79078e-020)
(27.1159 -3.38991 0)
(39.0612 -4.18408 1.67117e-020)
(52.4943 -4.99596 -1.61809e-020)
(67.0019 -5.80982 1.56808e-020)
(82.2712 -6.61242 0)
(98.0538 -7.39588 -1.47593e-020)
(114.175 -8.15055 1.43381e-020)
(130.427 -8.87041 1.39235e-020)
(146.793 -9.55272 0)
(162.926 -10.1866 1.31521e-020)
(178.952 -10.7818 1.29161e-020)
(194.619 -11.3145 -1.25753e-020)
(209.802 -11.7875 0)
(224.505 -12.2059 1.21433e-020)
(238.39 -12.5376 -1.20392e-020)
(251.23 -12.7416 1.18491e-020)
(262.826 -12.7827 0)
(273.078 -12.6474 -1.18767e-020)
(281.356 -12.3071 1.20743e-020)
(287.411 -11.7389 1.2229e-020)
(291.702 -11.0186 0)
(294.054 -10.2884 1.2311e-020)
(295.272 -9.63705 1.23129e-020)
(296.189 -9.10531 -1.23484e-020)
(296.999 -8.76886 0)
(297.061 -8.65725 1.31954e-020)
(295.551 -8.78876 -1.46199e-020)
(293.745 -9.12254 1.61271e-020)
(292.779 -9.5703 0)
(292.549 -10.0298 -1.83004e-020)
(293.267 -10.4111 1.88567e-020)
(294.474 -10.6397 0)
(295.05 -10.6864 -1.93672e-020)
(294.645 -10.558 1.93802e-020)
(293.057 -10.2548 1.92107e-020)
(289.937 -9.75428 -1.86213e-020)
(284.351 -8.92128 0)
(272.767 -7.29994 1.23428e-020)
(241.143 -4.85355 -1.1394e-020)
(159.426 -2.08132 0)
(58.9416 -0.470994 1.53529e-020)
(13.674 -0.0729149 -1.66807e-020)
(2.62366 -0.011613 1.70547e-020)
(0.457383 -0.00193917 0)
(0.0773708 -0.000324485 -1.71101e-020)
(0.0129318 -5.39873e-005 1.70951e-020)
(0.00214282 -8.92136e-006 1.70782e-020)
(0.000352126 -1.46422e-006 0)
(5.73853e-005 -2.388e-007 1.70437e-020)
(9.27602e-006 -3.87288e-008 1.70265e-020)
(1.48773e-006 -6.25174e-009 -1.70093e-020)
(2.36858e-007 -1.00552e-009 0)
(3.74521e-008 -1.61316e-010 1.69751e-020)
(5.8848e-009 -2.58449e-011 -1.6958e-020)
(9.19794e-010 -4.15221e-012 1.6941e-020)
(1.43297e-010 -6.49195e-013 0)
(2.24308e-011 -1.13631e-013 -1.6907e-020)
(3.54007e-012 -1.10514e-014 1.68901e-020)
(9.1312e-013 -5.26539e-015 1.68732e-020)
(1.80993e-013 2.44907e-014 0)
(-2.6037e-013 -4.85934e-015 1.68395e-020)
(-1.66182e-013 8.4107e-015 1.68227e-020)
(-4.40304e-013 7.2181e-015 -1.68059e-020)
(-1.5864e-013 -1.36331e-014 0)
(4.89854e-013 -7.87909e-016 1.67725e-020)
(4.31795e-013 2.73807e-014 -1.67558e-020)
(7.90838e-014 -8.76213e-015 1.67392e-020)
(2.87292e-013 4.04005e-015 0)
(-2.51132e-013 4.93295e-015 -1.67061e-020)
(4.01413e-013 2.38003e-014 1.66895e-020)
(1.64703e-013 2.40565e-015 1.6673e-020)
(4.07774e-013 2.45358e-014 0)
(1.42938e-013 2.1329e-014 1.66401e-020)
(6.92564e-013 1.76822e-014 1.66237e-020)
(2.03344e-027 3.1206e-014 -1.66073e-020)
(5.13056e-013 3.1732e-014 0)
(9.39679e-013 5.59492e-014 1.65747e-020)
(-3.12919e-013 1.62238e-014 -1.65584e-020)
(1.42096e-014 3.81884e-014 1.65422e-020)
(-2.83914e-013 1.17558e-014 0)
(3.40363e-013 3.43466e-015 -1.65098e-020)
(3.47115e-013 -6.53053e-015 1.64937e-020)
(9.27093e-013 1.21084e-014 1.64775e-020)
(1.83824e-013 -9.72144e-015 0)
(8.89969e-013 1.14778e-014 1.64454e-020)
(-1.69353e-013 -6.61534e-016 1.64294e-020)
(2.11485e-013 1.1841e-014 -1.64134e-020)
(1.97194e-013 1.3205e-015 0)
(-5.83972e-013 8.13515e-015 1.63815e-020)
(-4.99057e-013 -2.02083e-014 -1.63656e-020)
(1.96621e-013 -2.4797e-014 1.63497e-020)
(6.45413e-013 -2.55403e-014 0)
(6.79832e-013 2.95674e-015 -1.63181e-020)
(7.07182e-013 -1.72857e-014 1.63023e-020)
(1.03527e-012 1.80341e-014 1.62866e-020)
(-3.35438e-013 1.4195e-015 0)
(2.7228e-013 2.269e-014 1.62552e-020)
(-1.81346e-013 -8.01015e-015 1.62395e-020)
(-4.38991e-013 1.53516e-014 -1.62239e-020)
(-1.87958e-013 8.70178e-016 0)
(-6.39836e-013 5.92239e-015 1.61928e-020)
(-8.05976e-013 -3.47946e-014 -1.61772e-020)
(-2.91539e-013 4.17569e-015 1.61617e-020)
(-8.32171e-014 -3.53239e-014 0)
(-3.3255e-013 -1.8024e-014 -1.61308e-020)
(2.07645e-014 -3.67705e-014 1.61154e-020)
(-4.14894e-014 -1.41539e-014 0)
(-1.38166e-013 -5.59141e-014 -1.60847e-020)
(9.66241e-013 -2.60432e-014 1.60693e-020)
(4.66794e-013 -2.34627e-028 0)
(7.33534e-013 -1.27421e-042 0)
(6.66849e-014 -5.12701e-057 0)
(6.66849e-013 -1.62403e-071 0)
(2.00055e-013 -4.37842e-086 0)
(4.00109e-013 -1.5719e-100 0)
(2.00055e-013 -6.46757e-115 0)
(3.33424e-013 -2.95324e-129 0)
(2.00055e-013 -1.27261e-143 0)
(2.6674e-013 -5.34421e-158 0)
(3.33424e-013 -2.35567e-172 0)
(2.6674e-013 -1.03509e-186 0)
(3.33424e-013 -4.51426e-201 0)
(6.00164e-013 -1.71506e-215 0)
(2.00055e-013 -7.49224e-230 0)
(6.00164e-013 -2.83155e-244 0)
(6.66849e-014 -9.72333e-259 0)
(5.33479e-013 -3.17495e-273 0)
(1.3337e-013 -8.66007e-288 0)
(6.00164e-013 -2.56955e-302 0)
(1.53355e-026 -7.3582e-317 0)
(5.33479e-013 0 0)
(6.66849e-014 0 0)
(4.66794e-013 0 0)
(3.33424e-013 0 0)
(2.6674e-013 0 0)
(4.00109e-013 0 0)
(1.3337e-013 0 0)
(5.33479e-013 0 0)
(4.00109e-013 0 0)
(4.66794e-013 0 0)
(2.00055e-013 0 0)
(4.66794e-013 0 0)
(2.00055e-013 0 0)
(4.66794e-013 0 0)
(4.00109e-013 0 0)
(4.66794e-013 0 0)
(4.66794e-013 0 0)
(6.00164e-013 0 0)
(3.33424e-013 0 0)
(4.66794e-013 0 0)
(2.6674e-013 0 0)
(4.00109e-013 0 0)
(4.00109e-013 0 0)
(4.00109e-013 0 0)
(5.33479e-013 0 0)
(4.66794e-013 0 0)
(3.33424e-013 0 0)
(4.66794e-013 0 0)
(6.00164e-013 0 0)
(2.6674e-013 0 0)
(4.66794e-013 0 0)
(3.33424e-013 0 0)
(5.33479e-013 0 0)
(1.3337e-013 0 0)
(4.66794e-013 0 0)
(3.33424e-013 0 0)
(4.00109e-013 0 0)
(4.00109e-013 0 0)
(4.66794e-013 0 0)
(3.33424e-013 0 0)
(6.00164e-013 0 0)
(2.00055e-013 0 0)
(7.33534e-013 0 0)
(6.66849e-014 0 0)
(7.33534e-013 0 0)
(2.6674e-013 0 0)
(5.33479e-013 0 0)
(6.00164e-013 0 0)
(3.33424e-013 0 0)
(6.00164e-013 0 0)
(3.33424e-013 0 0)
(6.66849e-013 0 0)
(2.6674e-013 0 0)
(5.33479e-013 0 0)
(6.66849e-014 0 0)
(6.66849e-013 0 0)
(3.33424e-013 0 0)
(7.33534e-013 0 0)
(6.00164e-013 0 0)
(4.00109e-013 0 0)
(7.33534e-013 0 0)
(2.00055e-013 0 0)
(6.66849e-013 0 0)
(3.33424e-013 0 0)
(3.33424e-013 0 0)
(6.00164e-013 0 0)
(4.66794e-013 0 0)
(6.00164e-013 0 0)
(6.66849e-013 0 0)
(6.00164e-013 0 0)
(4.66794e-013 0 0)
(6.00164e-013 0 0)
(9.33589e-013 0 0)
(5.33479e-013 0 0)
(1.26701e-012 0 0)
(6.66849e-013 -9.72381e-078 0)
(1.00027e-012 -3.73292e-062 0)
(5.33479e-013 -7.16525e-047 0)
(8.00219e-013 -2.7507e-031 0)
(3.56395e-013 2.32071e-013 1.54381e-019)
(1.15244e-013 2.99122e-013 -3.12619e-016)
(1.84494e-013 6.05779e-013 6.18442e-016)
(-2.1916e-014 -7.91482e-014 1.49291e-019)
(2.35607e-013 9.51347e-014 -3.02425e-016)
(1.3259e-013 -1.60284e-013 1.46081e-019)
(-9.1292e-014 2.30352e-013 -2.9599e-016)
(1.61948e-013 -3.7428e-014 2.93018e-016)
(-8.71346e-014 8.02493e-014 1.41516e-019)
(1.56377e-013 2.83851e-013 -2.86836e-016)
(-2.22345e-013 -2.91653e-013 5.67957e-016)
(-1.49649e-013 6.67665e-014 -5.62083e-016)
(2.14707e-013 2.00576e-013 2.78367e-016)
(2.15515e-014 1.23216e-013 1.3451e-019)
(1.45248e-014 -1.38544e-014 2.72776e-016)
(-7.62338e-014 -1.61098e-013 1.31898e-019)
(7.36379e-014 3.37507e-014 -2.6753e-016)
(-1.16243e-013 -1.76263e-013 2.65111e-016)
(1.8933e-013 1.79761e-013 -2.62354e-016)
(1.93844e-013 2.76921e-014 0)
(1.94582e-013 4.13645e-014 1.25792e-019)
(6.17912e-014 1.37174e-013 -2.55133e-016)
(-7.97744e-014 -1.15207e-013 2.52937e-016)
(-2.24436e-013 -2.38605e-013 1.22392e-019)
(-7.07184e-014 -2.31997e-014 -2.48421e-016)
(-4.64124e-013 -2.71495e-013 2.46342e-016)
(4.34861e-014 1.03567e-013 -2.43943e-016)
(-3.48233e-013 -4.18593e-013 2.4194e-016)
(1.92657e-013 1.13177e-013 1.17116e-019)
(-7.39399e-013 -4.66373e-013 0)
(-5.87201e-014 -1.468e-013 0)
(-5.18486e-013 -2.11072e-013 -2.33693e-016)
(-2.40938e-013 -1.41315e-013 2.31859e-016)
(-7.20042e-013 -4.55477e-013 2.30055e-016)
(-2.69122e-013 -1.17326e-013 -2.28058e-016)
(-5.40817e-013 -3.59124e-013 2.26315e-016)
(-8.37723e-013 -3.17627e-013 -2.2438e-016)
(-5.40369e-013 -2.13704e-013 0)
(-4.20218e-013 -8.42968e-014 2.20818e-016)
(-1.61344e-013 -7.25059e-014 -2.18973e-016)
(-2.09141e-013 -2.92031e-014 -2.17368e-016)
(-1.3013e-013 -1.6962e-014 2.15788e-016)
(-1.69192e-013 8.76642e-015 -2.14024e-016)
(1.47196e-013 1.63899e-013 2.12494e-016)
(2.41223e-013 1.81996e-013 0)
(1.35557e-013 1.04195e-013 0)
(5.48981e-013 2.90862e-013 1.01384e-019)
(3.08545e-013 2.19147e-013 2.06097e-016)
(8.09308e-013 3.74739e-013 -2.04482e-016)
(6.76128e-013 2.58872e-013 -2.03088e-016)
(6.10695e-013 4.46935e-013 4.03233e-016)
(6.79681e-013 6.59184e-014 -2.00166e-016)
(6.9591e-013 2.32811e-013 1.98736e-016)
(6.08775e-013 3.27503e-013 -1.97327e-016)
(3.89964e-013 1.04975e-013 1.96033e-016)
(3.92895e-013 1.34206e-013 -1.94567e-016)
(-1.49023e-013 -5.38161e-014 9.43438e-020)
(-8.40972e-014 -1.32984e-013 0)
(-1.92411e-013 -3.34085e-014 0)
(3.9267e-013 1.14429e-013 -1.89273e-016)
(-7.22282e-014 -9.8871e-014 1.87994e-016)
(-1.82724e-013 4.55854e-014 -1.86641e-016)
(3.82233e-013 3.92034e-014 1.85487e-016)
(-5.11779e-013 -3.00079e-013 0)
(3.66632e-014 1.38256e-013 0)
(-1.56867e-013 -8.25304e-014 0)
(2.52348e-013 -1.71685e-014 -1.8067e-016)
(-1.34771e-013 6.32313e-014 1.79592e-016)
(5.08087e-013 8.03588e-014 1.78353e-016)
(4.65653e-013 1.34433e-013 8.65319e-020)
(9.10986e-014 -1.58106e-013 -1.76096e-016)
(2.32227e-013 1.9639e-013 8.54434e-020)
(-4.73304e-013 -1.68096e-013 0)
(1.14813e-013 -8.69237e-014 -1.72814e-016)
(-5.46602e-014 -6.50014e-014 1.71748e-016)
(2.47014e-013 -7.07552e-014 8.5347e-017)
(1.64761e-013 8.31099e-014 -8.48265e-017)
(2.52239e-013 -7.98435e-014 -8.43124e-017)
(1.25909e-013 4.0917e-014 8.38045e-017)
(-4.25145e-014 -1.10824e-013 0)
(-3.66311e-013 -1.2943e-013 -8.28069e-017)
(2.6596e-013 6.60853e-014 8.23169e-017)
(-2.59971e-013 -1.45873e-013 -8.18327e-017)
(-2.84575e-013 -1.38356e-013 8.13541e-017)
(3.27314e-014 -7.23535e-014 0)
(1.11987e-015 -7.64406e-028 0)
(-2.99252e-013 -2.19281e-013 0)
(-2.80024e-015 2.34439e-014 0)
(-4.46206e-013 -1.6965e-013 0)
(1.53497e-013 -3.42534e-014 -7.85963e-017)
(-6.89543e-013 -1.59805e-013 7.81548e-017)
(-1.92019e-013 -1.32681e-013 0)
(-2.48757e-013 -5.34362e-014 0)
(-1.89897e-013 -7.95855e-014 0)
(-2.13588e-013 -8.4909e-014 0)
(-3.94264e-013 -1.36507e-013 0)
(-2.35235e-013 -6.04502e-014 0)
(-2.39816e-013 -4.7803e-014 7.51976e-017)
(-1.60345e-013 -7.32797e-014 1.36048e-032)
(-1.39011e-013 -5.63113e-014 -7.43933e-017)
(-4.30394e-015 -7.05603e-014 0)
(-2.79602e-013 -6.87399e-014 0)
(-5.95609e-014 -5.32629e-014 0)
(-4.06808e-013 -3.81867e-014 0)
(3.32393e-014 -4.29737e-014 0)
(-1.4213e-013 -4.44044e-014 -7.20806e-017)
(3.65094e-013 3.03119e-014 0)
(3.32306e-013 2.57148e-015 0)
(2.65779e-013 5.11673e-015 7.09773e-017)
(1.98019e-013 9.25591e-016 0)
(3.9893e-013 1.93393e-014 0)
(2.13553e-013 -1.87839e-014 0)
(2.48953e-013 3.64683e-014 0)
(1.0166e-013 -4.21835e-014 0)
(1.83357e-013 3.40762e-014 0)
(4.06844e-013 3.59294e-015 0)
(7.42997e-015 4.13397e-014 -6.81939e-017)
(2.80406e-013 -1.37868e-014 0)
(4.38372e-013 2.10224e-014 -2.45679e-032)
(-9.67313e-014 -3.03903e-014 6.72056e-017)
(5.99787e-013 1.29305e-014 0)
(-3.54595e-013 -5.01657e-014 0)
(5.27325e-013 6.5122e-016 0)
(-4.62065e-013 -5.59555e-014 0)
(-1.62505e-013 -2.73082e-014 -3.28103e-017)