/*--------------------------------*- C++ -*----------------------------------*\
| =========                 |                                                 |
| \\      /  F ield         | OpenFOAM: The Open Source CFD Toolbox           |
|  \\    /   O peration     | Version:  5.x                                   |
|   \\  /    A nd           | Web:      www.OpenFOAM.org                      |
|    \\/     M anipulation  |                                                 |
\*---------------------------------------------------------------------------*/
/*   Windows 32 and 64 bit porting by blueCAPE: http://www.bluecape.com.pt   *\
|  Based on Windows porting (2.0.x v4) by Symscape: http://www.symscape.com   |
\*---------------------------------------------------------------------------*/
FoamFile
{
    version     2.0;
    format      ascii;
    class       volScalarField;
    location    "0.006";
    object      mag(U);
}
// * * * * * * * * * * * * * * * * * * * * * * * * * * * * * * * * * * * * * //

dimensions      [0 1 -1 0 0 0 0];

internalField   nonuniform List<scalar> 
10000
(
3.87157e-006
2.74722e-005
0.000151141
0.000796608
0.00376296
0.0165847
0.0656942
0.236829
0.746223
2.0627
4.99542
10.674
20.0624
33.3489
49.6842
67.63
86.0673
104.311
122.117
139.371
156.039
171.951
187.197
201.603
215.043
227.575
239.227
249.784
258.976
266.849
273.552
279.093
283.546
286.881
289.034
290.255
291.029
291.742
292.649
293.926
295.578
297.546
299.755
302.215
304.852
307.525
310.274
313.146
316.175
319.346
322.484
325.531
328.151
330.107
331.436
332.052
331.934
331.11
329.499
326.907
3.81886e-006
2.6987e-005
0.000147618
0.000775409
0.00364867
0.0160499
0.0634665
0.228932
0.722171
1.99979
4.85323
10.399
19.6076
32.7008
48.8755
66.719
85.1089
103.346
121.174
138.472
155.197
171.199
186.559
201.072
214.641
227.355
239.203
249.952
259.33
267.409
274.378
280.211
284.933
288.549
290.941
292.327
293.187
293.858
294.566
295.458
296.541
297.754
299.034
300.403
301.859
303.288
304.637
305.924
307.187
308.427
309.433
310.092
310.216
309.63
308.336
306.41
304.032
301.454
298.742
295.633
3.80659e-006
2.68955e-005
0.000147049
0.000772507
0.00363515
0.0159962
0.0632748
0.228346
0.720698
1.99681
4.84815
10.3914
19.5984
32.6899
48.8577
66.682
85.0385
103.226
120.986
138.216
154.826
170.783
185.968
200.361
213.895
226.465
238.096
248.697
258.039
266.089
272.93
278.589
283.17
286.675
289.041
290.455
291.245
291.775
292.296
292.896
293.6
294.355
295.106
295.887
296.725
297.499
298.169
298.84
299.647
300.662
301.738
302.825
303.671
304.048
303.902
303.165
301.83
299.971
297.582
294.478
3.76242e-006
2.65036e-005
0.000144237
0.000755638
0.00354387
0.0155667
0.0614671
0.221883
0.700811
1.94419
4.72775
10.1562
19.2049
32.1225
48.1418
65.8689
84.1766
102.354
120.13
137.402
154.04
170.132
185.353
199.838
213.584
226.317
238.001
248.714
258.304
266.666
273.803
279.648
284.332
288.021
290.585
292.184
293.166
293.767
294.196
294.516
294.758
294.904
294.929
294.881
294.837
294.681
294.329
293.924
293.643
293.626
293.83
294.066
294.223
294.208
293.881
293.234
292.242
290.906
289.214
286.925
3.73954e-006
2.63337e-005
0.000143187
0.000750196
0.00351811
0.0154613
0.0610807
0.220648
0.697516
1.93687
4.71374
10.1325
19.1715
32.0813
48.0918
65.8005
84.0796
102.214
119.929
137.137
153.693
169.689
184.816
199.184
212.817
225.445
237.026
247.613
257.08
265.335
272.357
278.119
282.737
286.309
288.794
290.348
291.219
291.714
292.104
292.434
292.734
292.969
293.092
293.123
293.131
292.987
292.589
292.081
291.647
291.489
291.592
291.76
291.909
291.961
291.775
291.269
290.413
289.196
287.583
285.379
3.70027e-006
2.60014e-005
0.000140858
0.000736395
0.00344369
0.0151111
0.0595988
0.215314
0.680977
1.89271
4.61154
9.93096
18.8306
31.5836
47.4558
65.0723
83.3022
101.423
119.154
136.386
152.994
169.05
184.268
198.76
212.486
225.211
236.947
247.749
257.402
265.8
272.984
278.915
283.723
287.562
290.263
291.955
292.938
293.495
293.883
294.123
294.297
294.402
294.4
294.302
294.181
293.91
293.352
292.62
291.875
291.319
290.974
290.668
290.338
289.961
289.429
288.682
287.707
286.504
285.009
283.036
3.67175e-006
2.57903e-005
0.00013955
0.000729547
0.00341087
0.0149746
0.0590901
0.213655
0.676444
1.88231
4.59097
9.89514
18.7785
31.5185
47.381
64.9805
83.1858
101.269
118.943
136.122
152.655
168.628
183.756
198.134
211.764
224.406
236.044
246.72
256.26
264.571
271.668
277.54
282.282
285.989
288.603
290.265
291.165
291.659
292.09
292.473
292.883
293.307
293.684
293.994
294.29
294.437
294.287
293.925
293.478
293.146
292.954
292.761
292.513
292.137
291.516
290.588
289.357
287.868
286.059
283.803
3.6353e-006
2.5496e-005
0.000137546
0.000717892
0.00334863
0.0146831
0.0578569
0.209197
0.662559
1.845
4.50384
9.7218
18.4824
31.0813
46.815
64.3262
82.4821
100.55
118.237
135.433
152.009
168.04
183.248
197.737
211.454
224.186
235.956
246.815
256.526
264.975
272.223
278.233
283.136
287.081
289.886
291.67
292.693
293.286
293.753
294.089
294.426
294.771
295.073
295.307
295.528
295.617
295.422
295.004
294.483
294.022
293.656
293.299
292.844
292.271
291.523
290.486
289.186
287.682
285.917
283.75
3.60423e-006
2.52672e-005
0.000136127
0.00071041
0.00331241
0.0145305
0.0572805
0.207288
0.657257
1.83256
4.47872
9.67728
18.4164
30.9979
46.7209
64.2171
82.3526
100.387
118.022
135.173
151.683
167.637
182.763
197.145
210.777
223.439
235.122
245.869
255.473
263.844
271.024
276.996
281.848
285.671
288.396
290.156
291.086
291.596
292.067
292.48
292.958
293.5
294.038
294.528
295.01
295.358
295.42
295.251
294.959
294.698
294.537
294.414
294.161
293.71
293.029
292.008
290.661
289.05
287.151
284.86
3.56962e-006
2.49986e-005
0.000134348
0.00070028
0.00325901
0.0142826
0.0562364
0.203507
0.645464
1.80076
4.40397
9.52751
18.1585
30.6132
46.2166
63.6277
81.713
99.7301
117.377
134.538
151.087
167.094
182.287
196.774
210.487
223.226
235.021
245.923
255.693
264.199
271.508
277.592
282.578
286.615
289.512
291.377
292.428
293.015
293.484
293.812
294.157
294.551
294.936
295.272
295.599
295.81
295.753
295.471
295.059
294.668
294.372
294.114
293.755
293.275
292.625
291.678
290.457
288.98
287.23
285.107
3.53783e-006
2.47661e-005
0.000132907
0.000692651
0.0032218
0.0141242
0.0556313
0.201478
0.639749
1.78711
4.37593
9.47712
18.0825
30.516
46.1076
63.5058
81.5754
99.563
117.162
134.286
150.771
166.713
181.832
196.215
209.856
222.54
234.254
245.05
254.718
263.16
270.429
276.493
281.443
285.371
288.205
290.068
291.056
291.589
292.073
292.474
292.938
293.485
294.043
294.558
295.058
295.424
295.505
295.337
295.01
294.696
294.497
294.348
294.088
293.683
293.086
292.197
291.035
289.595
287.853
285.752
3.5047e-006
2.45167e-005
0.000131295
0.000683645
0.00317497
0.0139091
0.054732
0.198222
0.629607
1.75974
4.31134
9.34696
17.8569
30.1766
45.6576
62.9742
80.9921
98.9613
116.57
133.699
150.222
166.207
181.384
195.867
209.58
222.327
234.137
245.072
254.898
263.467
270.835
276.989
282.051
286.174
289.169
291.132
292.24
292.85
293.343
293.683
294.04
294.473
294.923
295.333
295.728
296.005
296.008
295.752
295.307
294.816
294.393
294.018
293.587
293.105
292.51
291.697
290.658
289.363
287.783
285.857
3.47323e-006
2.42884e-005
0.000129883
0.000676159
0.00313827
0.0137516
0.0541245
0.196164
0.623739
1.74552
4.28166
9.293
17.7744
30.0698
45.5377
62.843
80.8502
98.7938
116.359
133.456
149.918
165.848
180.959
195.341
208.994
221.7
233.437
244.272
254.003
262.518
269.868
276.014
281.053
285.077
288.016
289.989
291.068
291.653
292.178
292.621
293.131
293.755
294.42
295.059
295.679
296.172
296.376
296.283
295.969
295.57
295.199
294.855
294.406
293.851
293.172
292.275
291.16
289.818
288.219
286.308
3.44152e-006
2.4055e-005
0.000128403
0.000668023
0.0030965
0.0135617
0.0533376
0.193318
0.614908
1.7217
4.2254
9.17916
17.5761
29.7694
45.1353
62.3626
80.3166
98.2404
115.814
132.911
149.412
165.375
180.534
195.016
208.727
221.482
233.306
244.267
254.146
262.777
270.2
276.418
281.55
285.752
288.846
290.915
292.106
292.773
293.335
293.749
294.194
294.762
295.391
296.016
296.623
297.145
297.419
297.382
297.093
296.646
296.142
295.617
295.037
294.418
293.677
292.717
291.558
290.201
288.615
286.737
3.41095e-006
2.38351e-005
0.000127048
0.000660842
0.00306116
0.0134092
0.0527446
0.191292
0.609071
1.70737
4.19508
9.12343
17.4898
29.6563
45.008
62.2254
80.1732
98.0751
115.608
132.68
149.121
165.038
180.141
194.525
208.186
220.909
232.669
243.543
253.333
261.913
269.331
275.552
280.677
284.796
287.841
289.93
291.117
291.784
292.383
292.922
293.55
294.333
295.2
296.077
296.932
297.698
298.212
298.396
298.31
298.038
297.68
297.264
296.707
296.015
295.152
294.048
292.738
291.232
289.524
287.56
3.3807e-006
2.36161e-005
0.000125679
0.000653415
0.00302343
0.0132394
0.0520465
0.188773
0.601291
1.68644
4.14565
9.02317
17.3145
29.3894
44.6473
61.7903
79.6838
97.5645
115.104
132.172
148.655
164.593
179.737
194.219
207.926
220.684
232.523
243.513
253.441
262.123
269.592
275.872
281.076
285.357
288.55
290.726
292.008
292.752
293.402
293.923
294.503
295.256
296.123
297.025
297.915
298.75
299.375
299.675
299.67
299.425
299.026
298.509
297.914
297.213
296.297
295.139
293.767
292.19
290.417
288.41
3.35139e-006
2.34068e-005
0.000124395
0.000646617
0.00298991
0.0130941
0.0514783
0.186816
0.595605
1.67232
4.11543
8.96707
17.2267
29.2729
44.5154
61.6496
79.541
97.4033
114.908
131.953
148.377
164.28
179.374
193.763
207.429
220.163
231.948
242.861
252.708
261.343
268.816
275.104
280.315
284.524
287.673
289.871
291.162
291.911
292.588
293.233
293.997
294.957
296.042
297.169
298.278
299.321
300.144
300.636
300.825
300.77
300.557
300.198
299.655
298.906
297.909
296.649
295.161
293.46
291.567
289.472
3.32265e-006
2.32013e-005
0.000123124
0.000639793
0.00295553
0.0129406
0.0508522
0.184564
0.588679
1.65375
4.07165
8.87813
17.0708
29.0347
44.1913
61.2548
79.0912
96.9311
114.438
131.479
147.945
163.859
178.988
193.474
207.173
219.932
231.788
242.806
252.779
261.506
269.015
275.351
280.627
284.981
288.266
290.542
291.904
292.718
293.444
294.059
294.757
295.667
296.73
297.859
298.984
300.068
300.965
301.545
301.814
301.804
301.585
301.208
300.704
300.006
299.021
297.764
296.265
294.533
292.597
290.475
3.29476e-006
2.30036e-005
0.000121917
0.000633413
0.00292404
0.0128038
0.0503143
0.182698
0.583224
1.64007
4.04206
8.82273
16.9831
28.9173
44.0573
61.1129
78.9505
96.7751
114.253
131.272
147.681
163.57
178.655
193.051
206.719
219.461
231.269
242.22
252.119
260.807
268.328
274.676
279.963
284.255
287.5
289.796
291.175
291.989
292.717
293.429
294.274
295.334
296.538
297.801
299.05
300.252
301.263
301.967
302.372
302.513
302.462
302.244
301.815
301.125
300.136
298.86
297.338
295.583
293.621
291.48
3.26757e-006
2.28109e-005
0.000120735
0.000627119
0.00289254
0.012664
0.0497477
0.180665
0.577002
1.62345
4.00296
8.74327
16.8437
28.7036
43.7649
60.7536
78.5364
96.3376
113.815
130.829
147.279
163.169
178.284
192.775
206.466
219.224
231.096
242.143
252.158
260.926
268.469
274.856
280.202
284.622
287.989
290.352
291.777
292.637
293.389
294.03
294.757
295.7
296.804
297.987
299.174
300.345
301.368
302.118
302.59
302.795
302.769
302.588
302.267
301.688
300.776
299.572
298.105
296.388
294.463
292.352
3.2412e-006
2.26252e-005
0.000119605
0.000621161
0.00286313
0.012536
0.0492427
0.178904
0.571823
1.61036
3.97438
8.68933
16.7576
28.5871
43.6311
60.6124
78.3989
96.1877
113.641
130.635
147.032
162.905
177.981
192.387
206.054
218.801
230.632
241.62
251.567
260.303
267.865
274.267
279.626
283.994
287.326
289.704
291.143
291.983
292.694
293.374
294.168
295.158
296.283
297.47
298.654
299.829
300.876
301.683
302.256
302.607
302.767
302.786
302.613
302.13
301.307
300.177
298.774
297.111
295.232
293.157
3.21558e-006
2.24449e-005
0.000118507
0.000615344
0.00283415
0.012408
0.0487267
0.177056
0.56619
1.59535
3.93919
8.61784
16.6321
28.3945
43.3663
60.2845
78.0169
95.7815
113.23
130.219
146.656
162.522
177.624
192.121
205.802
218.558
230.446
241.522
251.577
260.383
267.956
274.39
279.803
284.285
287.728
290.163
291.628
292.489
293.181
293.729
294.33
295.113
296.039
297.042
298.064
299.109
300.085
300.869
301.456
301.856
302.091
302.227
302.26
302.016
301.387
300.428
299.167
297.62
295.834
293.831
3.19076e-006
2.22709e-005
0.000117452
0.000609797
0.00280677
0.0122888
0.048255
0.175404
0.561309
1.58294
3.91188
8.56593
16.5485
28.2805
43.2344
60.1457
77.8837
95.6384
113.068
130.039
146.426
162.28
177.35
191.771
205.431
218.178
230.037
241.067
251.061
259.838
267.435
273.887
279.317
283.758
287.176
289.634
291.118
291.949
292.571
293.109
293.716
294.471
295.337
296.26
297.19
298.14
299.035
299.754
300.306
300.725
301.056
301.355
301.557
301.492
301.069
300.318
299.253
297.883
296.248
294.364
3.1667e-006
2.21025e-005
0.000116431
0.000604414
0.00278005
0.0121712
0.0477827
0.173715
0.556176
1.5693
3.87999
8.50117
16.4348
28.1059
42.9936
59.8455
77.5304
95.2605
112.683
129.646
146.08
161.894
177.037
191.503
205.148
217.955
229.888
240.954
251.007
259.864
267.511
274.016
279.492
284.018
287.525
290.039
291.566
292.452
293.087
293.518
293.947
294.499
295.161
295.882
296.615
297.374
298.112
298.706
299.142
299.47
299.758
300.074
300.413
300.576
300.387
299.869
299.026
297.868
296.429
294.708
3.14341e-006
2.19399e-005
0.000115449
0.000599261
0.00275463
0.0120604
0.0473438
0.172173
0.551602
1.5576
3.85409
8.45165
16.3546
27.9955
42.8651
59.7104
77.4023
95.1247
112.533
129.477
145.877
161.65
176.831
191.172
204.759
217.646
229.6
240.54
250.444
259.292
267.074
273.69
279.183
283.6
287.001
289.485
291.034
291.951
292.603
293.102
293.61
294.189
294.817
295.457
296.071
296.683
297.274
297.726
298.027
298.25
298.482
298.807
299.189
299.446
299.424
299.111
298.497
297.572
296.364
294.844
3.12087e-006
2.17828e-005
0.0001145
0.000594277
0.00272995
0.0119522
0.0469097
0.170623
0.5469
1.54514
3.82502
8.39263
16.2509
27.8364
42.6451
59.4345
77.075
94.7723
112.171
129.107
145.543
161.294
176.501
190.919
204.488
217.387
229.409
240.402
250.356
259.254
267.065
273.734
279.28
283.771
287.238
289.754
291.327
292.295
292.991
293.444
293.848
294.298
294.781
295.258
295.691
296.107
296.507
296.781
296.906
296.971
297.084
297.349
297.773
298.158
298.298
298.172
297.766
297.061
296.076
294.768
3.09908e-006
2.16313e-005
0.000113586
0.000589495
0.00270637
0.0118495
0.0465022
0.169188
0.542631
1.53417
3.80062
8.34574
16.1745
27.7306
42.5212
59.3043
76.9525
94.6444
112.032
128.954
145.348
161.098
176.28
190.633
204.19
217.09
229.095
240.048
249.938
258.808
266.66
273.37
278.94
283.388
286.817
289.341
290.938
291.916
292.603
293.103
293.571
294.047
294.506
294.907
295.22
295.477
295.702
295.799
295.745
295.651
295.647
295.85
296.245
296.664
296.921
296.964
296.768
296.298
295.54
294.467
3.07801e-006
2.14849e-005
0.000112705
0.000584877
0.00268354
0.0117495
0.0461022
0.16776
0.538305
1.52273
3.77395
8.29162
16.0795
27.5846
42.3192
59.0499
76.6485
94.315
111.691
128.605
145.029
160.76
175.958
190.38
203.933
216.832
228.882
239.892
249.852
258.769
266.618
273.348
278.961
283.497
287.016
289.594
291.225
292.246
292.962
293.412
293.777
294.127
294.447
294.694
294.837
294.907
294.938
294.836
294.571
294.275
294.099
294.188
294.554
295.035
295.413
295.607
295.604
295.352
294.81
293.978
3.05767e-006
2.13438e-005
0.000111857
0.000580444
0.0026617
0.0116544
0.0457244
0.166427
0.534332
1.51249
3.7511
8.2475
16.0072
27.4841
42.2008
58.9253
76.5322
94.1952
111.563
128.466
144.852
160.587
175.761
190.123
203.675
216.578
228.604
239.578
249.491
258.393
266.28
273.041
278.672
283.168
286.654
289.242
290.896
291.931
292.636
293.119
293.531
293.896
294.191
294.374
294.417
294.352
294.227
293.951
293.496
293.011
292.666
292.634
292.906
293.35
293.79
294.108
294.28
294.234
293.905
293.325
3.03802e-006
2.12076e-005
0.000111038
0.000576165
0.00264057
0.011562
0.0453548
0.165109
0.530337
1.50192
3.72651
8.19761
15.9196
27.3495
42.0145
58.6898
76.2492
93.8867
111.241
128.134
144.546
160.263
175.449
189.87
203.42
216.321
228.38
239.403
249.385
258.334
266.216
272.986
278.65
283.228
286.799
289.443
291.137
292.211
292.942
293.382
293.711
293.976
294.165
294.237
294.16
293.964
293.694
293.254
292.612
291.927
291.386
291.187
291.351
291.775
292.254
292.653
292.955
293.069
292.927
292.579
3.01905e-006
2.10763e-005
0.000110251
0.000572056
0.00262034
0.011474
0.0450051
0.163874
0.526649
1.4924
3.70519
8.15633
15.8518
27.2546
41.9021
58.5717
76.1395
93.775
111.124
128.009
144.387
160.109
175.274
189.641
203.196
216.103
228.138
239.129
249.075
258.02
265.938
272.734
278.41
282.952
286.498
289.154
290.873
291.966
292.693
293.166
293.542
293.833
294.025
294.078
293.959
293.696
293.336
292.782
291.995
291.142
290.421
290.059
290.079
290.397
290.846
291.283
291.677
291.913
291.934
291.785
3.00075e-006
2.09497e-005
0.000109491
0.00056809
0.00260077
0.0113884
0.0446628
0.162653
0.522947
1.48261
3.6824
8.11008
15.7706
27.1299
41.7294
58.3528
75.8753
93.4854
110.819
127.693
144.093
159.798
174.971
189.39
202.94
215.844
227.907
238.941
248.948
257.933
265.845
272.646
278.352
282.969
286.595
289.307
291.067
292.198
292.949
293.396
293.72
293.955
294.098
294.11
293.953
293.645
293.226
292.588
291.681
290.671
289.768
289.216
289.079
289.297
289.697
290.129
290.555
290.865
291.004
291.003
2.9831e-006
2.08277e-005
0.000108761
0.000564284
0.00258204
0.011307
0.0443394
0.16151
0.519532
1.47378
3.66261
8.07166
15.7072
27.041
41.6237
58.2415
75.7724
93.3821
110.714
127.581
143.951
159.663
174.818
189.189
202.749
215.659
227.699
238.704
248.684
257.671
265.618
272.441
278.157
282.74
286.342
289.064
290.845
291.997
292.753
293.238
293.622
293.909
294.102
294.157
294.035
293.747
293.328
292.662
291.686
290.56
289.499
288.764
288.446
288.5
288.787
289.171
289.591
289.94
290.165
290.273
2.96607e-006
2.071e-005
0.000108055
0.000560605
0.00256388
0.0112277
0.0440217
0.160377
0.516089
1.46466
3.64139
8.02857
15.6315
26.9247
41.4628
58.0373
75.5252
93.1096
110.425
127.28
143.668
159.363
174.524
188.939
202.493
215.399
227.46
238.503
248.54
257.564
265.504
272.327
278.066
282.719
286.4
289.177
291
292.189
292.971
293.449
293.815
294.091
294.291
294.372
294.287
294.037
293.647
292.989
291.982
290.773
289.572
288.649
288.139
288.029
288.184
288.472
288.836
289.18
289.446
289.622
2.94965e-006
2.05967e-005
0.000107378
0.000557082
0.00254657
0.0111525
0.043723
0.159322
0.512936
1.45651
3.62309
7.99299
15.5727
26.842
41.3641
57.9333
75.4294
93.0145
110.329
127.18
143.543
159.245
174.39
188.765
202.331
215.244
227.284
238.303
248.319
257.349
265.321
272.162
277.911
282.534
286.194
288.98
290.821
292.031
292.823
293.342
293.776
294.123
294.4
294.565
294.566
294.396
294.077
293.474
292.488
291.251
289.962
288.892
288.2
287.892
287.866
288.018
288.29
288.591
288.854
289.058
2.93382e-006
2.04874e-005
0.000106723
0.000553665
0.0025297
0.0110787
0.0434273
0.158266
0.509721
1.44799
3.60324
7.95263
15.5017
26.7331
41.2134
57.742
75.1974
92.7575
110.055
126.893
143.27
158.955
174.105
188.516
202.075
214.982
227.041
238.092
248.158
257.221
265.183
272.022
277.79
282.481
286.216
289.054
290.934
292.176
292.991
293.511
293.943
294.299
294.605
294.819
294.887
294.791
294.548
294.019
293.088
291.867
290.537
289.361
288.522
288.052
287.857
287.846
287.988
288.201
288.414
288.604
2.91858e-006
2.03822e-005
0.000106096
0.000550409
0.00251372
0.0110094
0.0431522
0.157295
0.506821
1.44049
3.5864
7.91986
15.4475
26.6566
41.1219
57.6455
75.1087
92.6707
109.969
126.806
143.162
158.853
173.99
188.368
201.938
214.854
226.895
237.927
247.977
257.046
265.037
271.892
277.672
282.337
286.049
288.894
290.784
292.042
292.861
293.412
293.897
294.31
294.681
294.968
295.115
295.101
294.943
294.502
293.653
292.491
291.18
289.967
289.039
288.43
288.072
287.907
287.906
288.003
288.133
288.273
2.90386e-006
2.02806e-005
0.000105487
0.00054723
0.002498
0.0109406
0.0428758
0.156307
0.503805
1.43248
3.56773
7.88187
15.3807
26.554
40.9802
57.4656
74.8905
92.4278
109.709
126.531
142.897
158.573
173.712
188.121
201.682
214.59
226.648
237.708
247.801
256.897
264.879
271.732
277.53
282.255
286.036
288.925
290.847
292.129
292.963
293.508
293.985
294.395
294.779
295.096
295.287
295.328
295.236
294.872
294.105
293.016
291.755
290.55
289.584
288.906
288.445
288.149
288.012
287.985
288.01
288.074
2.88972e-006
2.01832e-005
0.000104907
0.000544225
0.00248328
0.0108769
0.0426232
0.155417
0.501149
1.42562
3.55233
7.85186
15.3309
26.4837
40.8959
57.3766
74.809
92.3491
109.633
126.455
142.804
158.486
173.615
187.997
201.57
214.487
226.531
237.576
247.655
256.758
264.767
271.639
277.447
282.147
285.903
288.793
290.723
292.014
292.847
293.407
293.912
294.351
294.767
295.12
295.352
295.438
295.397
295.097
294.405
293.394
292.201
291.043
290.088
289.376
288.851
288.472
288.229
288.093
288.017
287.994
2.87604e-006
2.00886e-005
0.000104339
0.000541258
0.00246858
0.0108125
0.0423637
0.154488
0.498304
1.41805
3.53465
7.8159
15.2676
26.3866
40.762
57.2069
74.6031
92.1189
109.385
126.191
142.548
158.215
173.344
187.751
201.313
214.222
226.281
237.351
247.463
256.587
264.591
271.464
277.29
282.043
285.86
288.788
290.747
292.06
292.906
293.458
293.949
294.373
294.779
295.132
295.373
295.476
295.461
295.202
294.565
293.617
292.487
291.383
290.461
289.761
289.226
288.804
288.494
288.278
288.118
288.014
2.86294e-006
1.99985e-005
0.000103804
0.000538497
0.00245509
0.0107542
0.0421332
0.153677
0.495888
1.41181
3.52067
7.78861
15.2223
26.3225
40.685
57.1255
74.5287
92.0483
109.317
126.126
142.47
158.142
173.265
187.65
201.224
214.142
226.192
237.248
247.35
256.48
264.511
271.403
277.24
281.97
285.762
288.691
290.656
291.977
292.818
293.374
293.877
294.308
294.72
295.077
295.323
295.434
295.433
295.199
294.601
293.703
292.629
291.584
290.709
290.033
289.509
289.083
288.744
288.481
288.264
288.097
2.85021e-006
1.99102e-005
0.000103273
0.000535712
0.00244125
0.0106935
0.0418877
0.152797
0.493186
1.40461
3.50384
7.75438
15.1621
26.2302
40.5579
56.9647
74.334
91.8296
109.081
125.873
142.22
157.879
172.999
187.404
200.967
213.876
225.938
237.015
247.146
256.296
264.321
271.214
277.066
281.845
285.695
288.661
290.653
291.995
292.847
293.395
293.88
294.287
294.676
295.013
295.243
295.343
295.339
295.114
294.538
293.675
292.644
291.648
290.822
290.187
289.697
289.289
288.951
288.671
288.424
288.215
2.83811e-006
1.98274e-005
0.000102783
0.000533194
0.00242898
0.0106406
0.0416792
0.152065
0.491008
1.39899
3.49124
7.72977
15.1212
26.1722
40.4881
56.8909
74.2667
91.7669
109.022
125.819
142.156
157.821
172.936
187.324
200.902
213.82
225.872
236.94
247.065
256.223
264.271
271.179
277.042
281.803
285.632
288.6
290.597
291.942
292.783
293.323
293.804
294.202
294.576
294.896
295.11
295.194
295.179
294.953
294.388
293.548
292.553
291.605
290.828
290.237
289.786
289.412
289.095
288.823
288.571
288.342
2.82622e-006
1.97444e-005
0.000102282
0.000530555
0.00241583
0.0105828
0.0414447
0.151224
0.488418
1.39209
3.47511
7.69698
15.0636
26.084
40.3671
56.7381
74.0821
91.5586
108.797
125.575
141.913
157.565
172.675
187.077
200.645
213.554
225.613
236.699
246.852
256.029
264.071
270.976
276.851
281.658
285.544
288.548
290.571
291.933
292.78
293.307
293.764
294.131
294.473
294.762
294.946
295.004
294.969
294.731
294.163
293.333
292.361
291.449
290.718
290.177
289.777
289.449
289.171
288.927
288.691
288.46
2.81511e-006
1.96689e-005
0.000101839
0.00052829
0.00240485
0.0105356
0.0412589
0.150572
0.486484
1.3871
3.4639
7.67503
15.027
26.032
40.3042
56.6716
74.0217
91.5036
108.746
125.531
141.863
157.52
172.628
187.019
200.601
213.519
225.569
236.649
246.8
255.986
264.047
270.964
276.848
281.642
285.511
288.516
290.538
291.896
292.724
293.229
293.666
294.01
294.324
294.585
294.741
294.77
294.711
294.454
293.874
293.041
292.083
291.2
290.512
290.02
289.671
289.396
289.168
288.969
288.767
288.557
2.80391e-006
1.959e-005
0.000101358
0.000525749
0.00239215
0.0104796
0.0410317
0.149758
0.483972
1.38041
3.4483
7.6434
14.9715
25.9473
40.1885
56.5259
73.8462
91.3047
108.53
125.296
141.625
157.271
172.371
186.772
200.343
213.251
225.308
236.402
246.577
255.779
263.835
270.749
276.646
281.481
285.4
288.437
290.481
291.849
292.678
293.166
293.576
293.889
294.169
294.396
294.519
294.516
294.425
294.139
293.535
292.687
291.726
290.858
290.202
289.756
289.463
289.248
289.082
288.941
288.792
288.621
2.79386e-006
1.95226e-005
0.000100968
0.000523765
0.00238256
0.0104386
0.0408702
0.149191
0.482291
1.37606
3.4385
7.62409
14.9392
25.9011
40.1325
56.4666
73.7926
91.2574
108.488
125.262
141.588
157.238
172.34
186.734
200.316
213.234
225.287
236.377
246.549
255.758
263.831
270.76
276.667
281.491
285.393
288.426
290.465
291.825
292.63
293.089
293.474
293.758
294.008
294.205
294.295
294.257
294.13
293.807
293.165
292.286
291.307
290.442
289.813
289.409
289.167
289.013
288.915
288.841
288.76
288.647
2.78308e-006
1.94455e-005
0.000100494
0.000521254
0.00237
0.0103832
0.0406459
0.14839
0.479821
1.36951
3.42328
7.59337
14.8856
25.8195
40.0215
56.3273
73.6251
91.0667
108.28
125.034
141.355
156.994
172.087
186.486
200.056
212.964
225.024
236.127
246.316
255.539
263.613
270.546
276.468
281.327
285.271
288.333
290.392
291.764
292.573
293.022
293.388
293.65
293.873
294.04
294.098
294.024
293.855
293.486
292.791
291.859
290.837
289.95
289.327
288.958
288.768
288.682
288.659
288.665
288.668
288.628
2.77435e-006
1.93884e-005
0.000100168
0.00051961
0.00236207
0.0103493
0.0405115
0.147915
0.47841
1.36582
3.4149
7.57668
14.8574
25.7789
39.9716
56.2741
73.5768
91.0248
108.243
125.006
141.328
156.97
172.067
186.463
200.047
212.967
225.028
236.129
246.319
255.551
263.648
270.6
276.534
281.384
285.311
288.366
290.419
291.783
292.573
292.998
293.343
293.582
293.78
293.919
293.946
293.835
293.626
293.209
292.453
291.448
290.351
289.408
288.766
288.416
288.274
288.256
288.315
288.411
288.512
288.56
2.76349e-006
1.93094e-005
9.96807e-005
0.000517027
0.00234921
0.0102929
0.0402845
0.14711
0.475936
1.35929
3.39976
7.54604
14.8033
25.6955
39.8568
56.129
73.4018
90.825
108.025
124.767
141.078
156.713
171.797
186.196
199.771
212.684
224.752
235.865
246.069
255.318
263.421
270.381
276.329
281.207
285.169
288.253
290.332
291.719
292.53
292.967
293.313
293.544
293.723
293.838
293.836
293.697
293.459
293.007
292.2
291.117
289.912
288.845
288.111
287.735
287.624
287.678
287.838
288.047
288.272
288.432
2.7431e-006
1.91819e-005
9.89762e-005
0.00051351
0.00233227
0.0102196
0.0399908
0.146052
0.472764
1.35081
3.38024
7.50675
14.7372
25.6004
39.7392
55.9991
73.2774
90.7063
107.912
124.664
140.984
156.615
171.709
186.109
199.712
212.65
224.72
235.822
246.019
255.289
263.442
270.445
276.421
281.286
285.231
288.329
290.428
291.836
292.646
293.055
293.367
293.561
293.699
293.779
293.751
293.591
293.339
292.88
292.059
290.935
289.635
288.386
287.364
286.612
286.131
285.892
285.869
286.025
286.36
287.22
2.72221e-006
1.90771e-005
9.86574e-005
0.000512892
0.00233467
0.0102482
0.0401772
0.14689
0.475895
1.36053
3.40559
7.56209
14.8387
25.7603
39.9569
56.2585
73.5539
90.9864
108.21
124.948
141.264
156.917
172.006
186.396
199.953
212.864
224.947
236.065
246.259
255.486
263.568
270.517
276.456
281.303
285.225
288.265
290.294
291.632
292.367
292.697
292.956
293.119
293.226
293.286
293.251
293.099
292.87
292.446
291.674
290.618
289.411
288.274
287.356
286.671
286.184
285.862
285.707
285.716
285.903
286.562
2.69462e-006
1.89126e-005
9.78239e-005
0.000508935
0.00231635
0.0101701
0.0398625
0.145731
0.472258
1.35036
3.38069
7.50898
14.7422
25.6089
39.748
56.0033
73.2726
90.6971
107.896
124.647
140.988
156.601
171.701
186.132
199.722
212.655
224.734
235.836
246.029
255.299
263.437
270.434
276.402
281.267
285.223
288.307
290.385
291.774
292.554
292.893
293.137
293.278
293.351
293.375
293.307
293.128
292.882
292.452
291.683
290.626
289.408
288.244
287.278
286.532
286.005
285.67
285.51
285.523
285.722
286.335
2.66919e-006
1.87706e-005
9.72425e-005
0.000506767
0.00231048
0.0101604
0.0398898
0.14601
0.473747
1.35595
3.3974
7.5489
14.8219
25.7444
39.9484
56.2586
73.5655
90.9996
108.235
124.966
141.275
156.935
172.015
186.395
199.946
212.857
224.944
236.06
246.247
255.473
263.557
270.509
276.45
281.269
285.151
288.172
290.192
291.512
292.21
292.475
292.684
292.829
292.92
292.978
292.966
292.867
292.724
292.427
291.827
290.974
289.989
289.078
288.366
287.828
287.425
287.139
286.975
286.946
287.074
287.569
2.64257e-006
1.86159e-005
9.6525e-005
0.000503595
0.00229713
0.0101074
0.0396866
0.145276
0.471426
1.34926
3.38018
7.51007
14.7467
25.6184
39.7602
56.012
73.2719
90.69
107.882
124.629
140.988
156.59
171.692
186.149
199.732
212.657
224.739
235.841
246.034
255.303
263.423
270.405
276.363
281.233
285.204
288.284
290.354
291.73
292.487
292.785
292.998
293.135
293.212
293.257
293.238
293.137
293
292.724
292.162
291.353
290.413
289.55
288.886
288.403
288.081
287.891
287.833
287.913
288.138
288.693
2.61574e-006
1.84604e-005
9.58385e-005
0.000500734
0.0022871
0.0100764
0.0396169
0.145189
0.471726
1.35164
3.38958
7.53612
14.805
25.7272
39.9373
56.2554
73.5742
91.0115
108.259
124.986
141.291
156.953
172.023
186.395
199.939
212.85
224.939
236.054
246.235
255.462
263.545
270.502
276.446
281.245
285.093
288.094
290.112
291.421
292.093
292.317
292.497
292.647
292.754
292.83
292.851
292.798
292.715
292.5
292.006
291.278
290.435
289.692
289.159
288.802
288.595
288.513
288.561
288.743
289.054
289.67
2.58859e-006
1.83014e-005
9.51265e-005
0.000497672
0.00227522
0.0100329
0.0394659
0.144687
0.470229
1.34741
3.3784
7.50952
14.7499
25.628
39.7752
56.0255
73.2766
90.686
107.869
124.61
140.984
156.579
171.683
186.165
199.744
212.662
224.746
235.845
246.037
255.304
263.407
270.373
276.321
281.195
285.175
288.254
290.321
291.688
292.426
292.694
292.881
293.013
293.086
293.127
293.112
293.019
292.895
292.648
292.127
291.356
290.45
289.632
289.034
288.631
288.409
288.362
288.484
288.765
289.184
289.897
2.56119e-006
1.81396e-005
9.44032e-005
0.000494553
0.00226353
0.00999233
0.0393469
0.144393
0.469769
1.34753
3.38209
7.52383
14.7883
25.7093
39.9239
56.2488
73.5791
91.0212
108.283
125.008
141.312
156.973
172.031
186.398
199.931
212.84
224.935
236.049
246.223
255.45
263.534
270.497
276.449
281.234
285.049
288.024
290.037
291.338
291.986
292.177
292.333