/*--------------------------------*- C++ -*----------------------------------*\
| =========                 |                                                 |
| \\      /  F ield         | OpenFOAM: The Open Source CFD Toolbox           |
|  \\    /   O peration     | Version:  5.x                                   |
|   \\  /    A nd           | Web:      www.OpenFOAM.org                      |
|    \\/     M anipulation  |                                                 |
\*---------------------------------------------------------------------------*/
/*   Windows 32 and 64 bit porting by blueCAPE: http://www.bluecape.com.pt   *\
|  Based on Windows porting (2.0.x v4) by Symscape: http://www.symscape.com   |
\*---------------------------------------------------------------------------*/
FoamFile
{
    version     2.0;
    format      ascii;
    class       volScalarField;
    location    "0.006";
    object      p;
}
// * * * * * * * * * * * * * * * * * * * * * * * * * * * * * * * * * * * * * //

dimensions      [1 -1 -2 0 0 0 0];

internalField   nonuniform List<scalar> 
10000
(
100000
100000
99999.9
99999.7
99998.6
99994.1
99976.2
99914
99722.7
99229.7
98130.8
96030.4
92625.9
87996.5
82609.9
77022.7
71664.2
66670.8
62096.2
57913.1
54118.5
50683.5
47574.4
44793.8
42313.2
40111.2
38177.6
36498.6
35064.1
33879.6
32916.1
32143.3
31567.7
31135.9
30844.3
30656.3
30554.9
30511.6
30499.5
30499.8
30501.1
30504.4
30511.8
30526.7
30549.4
30544.5
30550.5
30564.7
30592.2
30618.9
30662.4
30718.1
30725.4
30726
30723.8
30718.7
30701.6
30690.1
30646.1
30657.6
100000
100000
99999.9
99999.7
99998.7
99994.3
99976.9
99916.7
99731
99251.6
98180.4
96125
92778.3
88205.7
82860.3
77294.9
71943.4
66949.6
62370.6
58180.1
54378.2
50933.1
47813.8
45020.9
42526.9
40310.9
38361.9
36665.8
35209.9
34006.4
33026
32232.2
31638.2
31193.9
30880.2
30675.5
30566.3
30519.7
30504.5
30503.8
30504.2
30506.3
30511.8
30525
30553.3
30549.8
30554.8
30566.1
30588.2
30633.9
30662.1
30665.7
30709.3
30720.3
30720.8
30716
30712.9
30709.4
30699.4
30663.8
100000
100000
99999.9
99999.7
99998.7
99994.3
99977
99917
99731.8
99253.5
98184.1
96131.4
92787.5
88215.9
82870.9
77304.3
71951.5
66955.8
62375.5
58186.2
54380.7
50938.4
47816.8
45023.1
42529.9
40313.5
38364
36668.1
35216
34009.1
33026.7
32233.9
31634.8
31191
30875.1
30683.9
30558.2
30517
30500.9
30500.5
30501.2
30503.9
30510.7
30524.9
30553.8
30550.9
30554.8
30566.2
30591.2
30626.1
30651.9
30692
30710.5
30723
30723.9
30720.7
30711.1
30695.4
30669.2
30634.3
100000
100000
99999.9
99999.7
99998.7
99994.4
99977.6
99919.2
99738.7
99271.9
98226.2
96212.8
92920.2
88400.9
83095
77550.5
72205.9
67211.8
62628.5
58431.6
54621.7
51168.1
48038.5
45233.7
42728.3
40499.3
38535.8
36825.6
35350.1
34129.8
33132
32320.6
31703.2
31251.7
30912.4
30706.2
30581.8
30532.5
30512.6
30505.3
30505.8
30508
30514.1
30527.7
30555.4
30551.7
30555.3
30565.3
30587.6
30628.5
30670.5
30688.9
30688.5
30711.8
30713.7
30712.4
30710.2
30684.8
30651.7
30617.1
100000
100000
99999.9
99999.7
99998.7
99994.5
99977.8
99919.8
99740.1
99275.2
98232.6
96224.2
92936.5
88419.1
83113.4
77567
72220.3
67223.1
62637.8
58442.8
54627.4
51178
48044.9
45239.6
42734
40504.1
38540.7
36828.7
35358.2
34129.1
33133.2
32320.4
31700.5
31246.3
30906.3
30705.2
30570.7
30522.7
30505.3
30498.1
30498.8
30501.6
30508.8
30523.8
30553
30548.8
30552.2
30561.4
30582.9
30627.9
30675.5
30703.7
30694.4
30686
30697.5
30696.6
30691
30662.6
30632.1
30607.1
100000
100000
99999.9
99999.7
99998.7
99994.6
99978.3
99921.6
99745.9
99290.7
98268.5
96294.3
93052.1
88582.9
83314.8
77790.6
72452.6
67458.3
62871.1
58668.3
54851.1
51389.8
48251.2
45435.7
42918.4
40677.5
38700.7
36977.9
35487.3
34252.3
33232.2
32406.9
31768.9
31311.9
30947.9
30734
30592.6
30536.6
30515
30501.7
30502
30503.6
30509
30522.3
30550.6
30548.8
30553
30562.6
30583
30629.2
30677.9
30700.7
30691.4
30681.3
30688
30687.9
30684.2
30672.9
30642
30620.1
100000
100000
99999.9
99999.7
99998.8
99994.6
99978.5
99922.2
99747.7
99294.9
98277
96309.4
93073.9
88607.6
83339.3
77812.2
72472.1
67473.6
62883.9
58683.2
54859.5
51402.9
48259.9
45442.8
42926.5
40684.6
38707.1
36981.1
35493
34246
33231.3
32403.9
31760.8
31296.7
30938.5
30731.7
30581.8
30527.4
30505.9
30492.5
30493
30495.2
30501.3
30514.9
30543
30542.2
30546.3
30555.9
30575.4
30618.3
30662.5
30689
30688.2
30686.9
30682.3
30680.2
30679
30674.4
30656.7
30629.3
100000
100000
99999.9
99999.7
99998.8
99994.7
99978.9
99923.8
99752.5
99308.1
98307.6
96370.1
93174.9
88752.5
83520.2
78015.9
72684.5
67690.2
63099.4
58891.1
55067.3
51598.3
48451.8
45626.8
43098.6
40846.7
38858.1
37122.6
35617.6
34367.8
33328.6
32489.7
31835.7
31369.5
30983.2
30762.6
30601.5
30538.9
30510.5
30495.5
30495.7
30496.9
30501.5
30513.3
30539.1
30539.1
30543.8
30555.2
30577.6
30608.7
30647.1
30682.6
30695.2
30704.2
30706.9
30685.7
30683
30680.9
30672.1
30652.7
100000
100000
100000
99999.7
99998.8
99994.8
99979.1
99924.5
99754.6
99313
98317.5
96387.7
93200.7
88782.3
83549.8
78041.5
72707.7
67708.4
63115
58908.3
55077.6
51614.2
48462.1
45634.3
43107.6
40854.6
38865.1
37127.3
35621.5
34361.6
33325.9
32485.7
31820.8
31345.8
30973.8
30757.6
30596.5
30528.8
30502.9
30486.3
30486.7
30488.7
30494.1
30506.1
30530.9
30530.5
30534.8
30545.6
30568
30593.9
30634.4
30677.7
30694.2
30698.2
30703
30683.9
30677.6
30676.9
30671.9
30662.6
100000
100000
100000
99999.8
99998.8
99994.9
99979.4
99925.8
99758.7
99324.3
98343.9
96440.4
93289.2
88910.7
83712.3
78227
72902.4
67908.3
63314.2
59101.4
55271
51793.5
48640.9
45807.2
43269.1
41007.3
39007.1
37260
35740.2
34473.5
33419.4
32567.7
31897.1
31420.2
31017.1
30789.8
30613.7
30540.3
30510
30490.3
30490.5
30491.5
30495.4
30505.8
30528.4
30529.1
30534.2
30545.9
30568.7
30593.2
30638.8
30687.8
30701
30699.1
30695.8
30668.8
30673.8
30675.1
30671.2
30668.2
100000
100000
100000
99999.8
99998.8
99994.9
99979.6
99926.6
99760.9
99329.5
98354.7
96459.8
93317.9
88944.4
83745.9
78255.8
72928.3
67928.5
63331.8
59119.5
55282.9
51812.3
48651.9
45814.5
43278.7
41015.7
39014.2
37264.4
35743.4
34470.8
33417.7
32564.3
31882.1
31392.3
31009.2
30783.3
30610.9
30528.5
30502.2
30481.2
30481.7
30483.5
30488.2
30498.8
30521
30521.7
30526.4
30537
30557.8
30586.7
30636.7
30681.4
30690.3
30687.9
30676.1
30652.9
30669.6
30671.6
30668.2
30674.6
100000
100000
100000
99999.8
99998.8
99995
99979.9
99927.7
99764.5
99339.3
98377.5
96505.9
93395.6
89058.3
83891.9
78424.8
73107
68113.3
63516.3
59299.4
55462.7
51977.1
48819.3
45976.6
43428.3
41157.5
39146.7
37388.2
35856.1
34571.9
33504.2
32640.8
31955.8
31465.9
31049.7
30814.7
30629.6
30544.8
30513
30487
30486.9
30487.6
30490.5
30499.1
30518.5
30524.8
30532.5
30542.2
30559.4
30587
30638
30682.2
30690
30687.6
30656.3
30657.8
30675.7
30675.7
30669.7
30681.4
100000
100000
100000
99999.8
99998.8
99995.1
99980.1
99928.5
99766.7
99344.7
98388.8
96526.2
93426.1
89094.8
83928.6
78456.2
73134.8
68134.7
63534.9
59318.1
55476.1
51998.6
48830.7
45983.9
43439.4
41167.1
39154.8
37393.9
35858.7
34572.8
33505.8
32639.2
31942.1
31438.1
31043.4
30807.7
30625.5
30532.4
30502.6
30477.5
30477.9
30479.6
30483.7
30492.8
30511.3
30531.6
30527.4
30531.9
30549.9
30575.4
30621.4
30667.6
30675.6
30667.3
30649.4
30670.2
30677.6
30678.5
30675.2
30693.7
100000
100000
100000
99999.8
99998.9
99995.1
99980.4
99929.5
99769.8
99353.2
98408.7
96566.7
93494.8
89196.1
84059.8
78610
73299
68305.9
63706.1
59484.9
55642.9
52149.4
48987.4
46136.3
43578.2
41298.6
39277.9
37508.6
35965
34665.1
33584.7
32709.6
32011.5
31508.3
31082.6
30841.5
30645.3
30552.2
30517.5
30484.9
30484.2
30484.6
30486.6
30492.9
30507.6
30540.4
30536.3
30540.1
30553.2
30574.5
30615.3
30656.2
30671.1
30667.1
30673
30684.1
30683.4
30683.5
30685.7
30705.4
100000
100000
100000
99999.8
99998.9
99995.2
99980.6
99930.2
99772
99358.6
98420.1
96587.5
93526.2
89234.4
84098.8
78643.5
73328.3
68327.9
63725.5
59503.6
55657.6
52173
48998.5
46144
43590.8
41309.9
39287.3
37515.8
35967.9
34668.6
33589.3
32710
32000.8
31483.2
31076.6
30830.8
30639.3
30536
30505.4
30476.5
30476.7
30477.8
30480.9
30487.8
30502.2
30531.8
30527.7
30533
30547.5
30565.7
30603.4
30632.1
30661.9
30669.1
30682.9
30688.3
30686.7
30685.3
30695.1
30704.5
100000
100000
100000
99999.8
99998.9
99995.2
99980.9
99931.1
99774.7
99366.1
98437.7
96623.3
93587.2
89324.8
84216.8
78783.5
73479.2
68486.9
63884.5
59659.7
55812.4
52311.4
49145.7
46285.8
43719
41431.1
39401.2
37621.9
36067.8
34754.2
33661.9
32775.3
32064
31546.7
31113.1
30867
30662.2
30561.7
30524.2
30484.7
30482.1
30482.5
30484.3
30490.1
30503.7
30533
30531.1
30536.4
30549.3
30565.5
30602.9
30626.5
30675.5
30682.3
30687.2
30694
30691.2
30689.1
30696.7
30701.3
100000
100000
100000
99999.8
99998.9
99995.3
99981.1
99931.8
99776.8
99371.4
98449
96644
93618.9
89364
84257.4
78818.5
73509.4
68509
63904.7
59676
55828.6
52336.6
49156.7
46294.3
43732.8
41443.7
39411.5
37630.2
36071.2
34759.5
33667.9
32777.1
32056.2
31527.3
31109.7
30851.3
30653.6
30541.4
30509.7
30476.6
30476.6
30477.4
30480
30486.6
30500.5
30528.3
30524.8
30529.5
30541.5
30557.3
30593.4
30619.7
30672.2
30684.2
30686.5
30690.6
30689.1
30690.3
30694.5
30693.1
100000
100000
100000
99999.8
99998.9
99995.3
99981.3
99932.6
99779.3
99378.1
98464.6
96675.9
93673.3
89444.9
84363.7
78946.1
73648.2
68656.8
64052.1
59823.5
55971.5
52463.4
49295.2
46426.7
43851.6
41556
39517.6
37729.3
36165.6
34839.9
33735.5
32838.7
32115.6
31583.7
31143.3
30890.4
30677.1
30569.7
30529.1
30484.4
30480.8
30481.2
30483
30488.7
30502
30530.6
30528.3
30532.8
30543.8
30559.2
30594.9
30623.3
30689
30690.7
30690.5
30689.8
30686.6
30690.9
30692.2
30682.6
100000
100000
100000
99999.8
99998.9
99995.4
99981.5
99933.3
99781.3
99383.2
98475.6
96696.3
93704.8
89484.5
84405.1
78982
73679
68678.6
64072.5
59840.7
55989.4
52489.5
49305.4
46435.7
43866.4
41569.6
39528.7
37738.6
36169.6
34846.4
33742.6
32840.7
32109.3
31568.2
31142.1
30872.4
30668.4
30551.1
30513.7
30477.8
30476.9
30477.5
30479.9
30485.9
30498.8
30525.9
30522.5
30526.5
30536.7
30555.1
30588.8
30616.6
30682.8
30691
30690.2
30686.7
30684.9
30688.6
30687.5
30672.8
100000
100000
100000
99999.8
99998.9
99995.4
99981.7
99934
99783.6
99389.2
98489.6
96724.8
93753.6
89557.2
84501.2
79098.5
73806.8
68816.4
64209.7
59976.6
56121.1
52606.1
49436.4
46559.6
43976.6
41674.1
39627.7
37831.3
36259
34922.1
33806.2
32899
32166
31619.5
31174.4
30910.2
30688.7
30572
30529
30484
30480.2
30480.5
30482.2
30487.3
30499.3
30525.5
30523.7
30527.6
30537.1
30558.6
30586.5
30621.3
30689.8
30694.5
30693
30687.9
30686.9
30687.4
30682.5
30665.6
100000
100000
100000
99999.8
99998.9
99995.5
99981.8
99934.6
99785.5
99394
98500.1
96744.6
93784.4
89596.4
84542.8
79134.8
73837.7
68837.7
64229.7
59995.8
56140.1
52632.5
49445.6
46569
43992.1
41688.4
39639.5
37841.4
36263.3
34929.5
33813.6
32901.3
32161
31608
31174.3
30894.5
30681.7
30565.8
30515.7
30479.4
30477.7
30478.2
30480.1
30485.2
30496.3
30519.8
30519
30521.9
30530.3
30551.2
30577.3
30611.9
30675.7
30690.5
30692.5
30689.1
30689
30685.9
30676
30663.7
100000
100000
100000
99999.8
99999
99995.5
99982
99935.3
99787.5
99399.5
98512.8
96770.4
93828.5
89662.1
84629.9
79241.3
73955.5
68965.9
64357.5
60120.8
56262
52740.4
49569
46684.4
44094.4
41785.7
39732.2
37928.2
36347.7
35000.7
33873.8
32956.1
32214.3
31654.4
31205
30928.5
30699.6
30578.9
30527.5
30484.4
30480
30480.2
30481.5
30485.7
30495.5
30516.6
30525
30523.1
30529.2
30548.1
30572.8
30607.1
30676.6
30687.9
30694.1
30693.8
30692.9
30687.2
30671
30666.5
100000
100000
100000
99999.8
99999
99995.6
99982.2
99935.9
99789.3
99404.1
98522.8
96789.4
93858.3
89700.5
84671.1
79277.6
73986.3
68986.9
64377.2
60138.7
56281.6
52766.6
49577.1
46694.5
44110.5
41800.5
39744.2
37938.6
36352.1
35008.4
33881.5
32958.6
32210.8
31646.6
31205.6
30916.5
30694.6
30578.5
30515.7
30480.7
30478.4
30478.8
30480.2
30484
30492.7
30511.1
30521.7
30518.3
30524.5
30540.7
30564.4
30593.2
30656.3
30681.1
30693.2
30697.8
30694.4
30687.5
30665
30664.6
100000
100000
100000
99999.8
99999
99995.6
99982.3
99936.5
99791.2
99409
98534.3
96812.7
93898.3
89760.1
84750.4
79375
74094.9
69106.1
64496.2
60256
56394.6
52866.7
49693.3
46801.9
44205.3
41891
39830.9
38019.9
36431.9
35075.7
33938.2
33010.4
32261
31688.3
31235.1
30946.3
30710.9
30591.3
30526.1
30485.5
30479.6
30479.6
30480.5
30483.4
30490.7
30506.9
30522.2
30519.9
30525.2
30539.3
30564
30592.2
30650.9
30681.4
30694.5
30700
30696.2
30688.1
30661.9
30653.1
100000
100000
100000
99999.8
99999
99995.6
99982.5
99937
99792.9
99413.3
98543.8
96830.8
93926.9
89797.3
84790.7
79411
74125.4
69126.7
64515.8
60272.2
56414.5
52892.3
49700.7
46812.5
44221.7
41905.9
39842.9
38030.1
36435.9
35083.2
33946
33012.9
32258.5
31682.8
31235.6
30937.7
30706.7
30591.7
30517.6
30481.2
30479
30478.5
30479.3
30482
30488.7
30502.8
30521.1
30517.9
30522.5
30534.9
30560
30586.4
30630.5
30678.5
30692.7
30697
30694.3
30685.3
30663.7
30628.3
100000
100000
100000
99999.8
99999
99995.7
99982.6
99937.6
99794.6
99417.9
98554.3
96852.2
93963.4
89851.7
84863.2
79500.4
74225.6
69237.7
64626.4
60382.7
56519.2
52985.4
49808.2
46911.9
44309.5
41990.1
39924
38106.2
36511.3
35146.6
33999.2
33062.3
32305.2
31721.3
31263.3
30964.8
30721.5
30601.8
30525
30484.3
30479.6
30478.3
30478.9
30481
30486.7
30499.4
30521.2
30518
30522.2
30534
30559
30589.3
30629.7
30679.4
30692.4
30693.7
30691.1
30681.6
30663.2
30608.9
100000
100000
100000
99999.8
99999
99995.7
99982.8
99938.1
99796.1
99421.9
98563.3
96869.3
93990.6
89887.4
84902.3
79535.6
74255.5
69257.8
64645.7
60398.9
56539.1
53010.2
49817
46923.4
44326.1
42004.9
39935.6
38116.1
36515.1
35153.7
34006.9
33063.8
32303.7
31717.4
31264.6
30957.5
30719.2
30602.4
30519
30482.6
30478.4
30477
30477.5
30479.5
30484.6
30496.2
30519.8
30516.5
30520.3
30530.4
30551.6
30586.9
30624.3
30676.2
30686.2
30685.9
30683.2
30673
30658.9
30591.2
100000
100000
100000
99999.8
99999
99995.7
99982.9
99938.6
99797.7
99426.1
98572.9
96888.9
94024.1
89937.3
84968.7
79617.8
74348.2
69360.9
64748.5
60501.6
56636.2
53096.7
49914.3
47014.8
44407.6
42083.2
40011.4
38187.3
36585.9
35213.3
34056.9
33111.2
32347.1
31753
31290.8
30982.6
30732.9
30611.7
30526.4
30485.1
30478.6
30476.4
30476.7
30478.3
30483
30494.5
30517.7
30515.2
30518.9
30528.2
30547.7
30590.8
30626.6
30674.8
30681.6
30680.1
30675
30664.3
30644
30585.2
100000
100000
100000
99999.8
99999
99995.8
99983.1
99939
99799.2
99429.9
98581.3
96905
94049.9
89971.3
85006.3
79652
74377.3
69380.7
64767.6
60517.9
56655.8
53120.7
49926.8
47027.6
44424.3
42097.8
40022.8
38196.9
36589.6
35220.1
34064.2
33112.3
32346.2
31750
31292.1
30976.5
30732
30612.4
30522
30484.6
30477.4
30475.1
30475.5
30477
30481.6
30492.8
30515.5
30513.1
30516.8
30525.8
30544.7
30588.3
30622
30669.4
30673.3
30670.9
30663.3
30652.6
30626.4
30590.6
100000
100000
100000
99999.8
99999
99995.8
99983.2
99939.5
99800.6
99433.7
98590.2
96923
94080.8
90017.3
85067.6
79727.8
74463.1
69476.5
64863.1
60613
56746
53201.2
50016.1
47111.4
44499.8
42170.7
40093.5
38263.3
36655.7
35275.9
34110.8
33157.3
32386.8
31783.2
31316.8
31000.1
30745
30621.1
30529.5
30487
30477.5
30474.5
30474.7
30476.1
30480.7
30491.7
30514
30511.2
30515.2
30525.1
30545.4
30592.5
30620.5
30664.1
30667.2
30663.9
30652.7
30641.3
30618.8
30598.1
100000
100000
100000
99999.8
99999
99995.8
99983.3
99939.9
99802
99437.2
98598
96938.1
94105
90049.5
85103.3
79760.7
74491.3
69495.8
64881.8
60629.7
56765.2
53224.4
50029.6
47125.3
44516.4
42185
40104.5
38272.7
36659.7
35282.3
34117.7
33158.4
32386.2
31780.7
31317.8
30995.5
30744.9
30621.8
30525.8
30487
30476.6
30473.4
30473.7
30475.2
30479.7
30490.4
30512.7
30509.3
30513.3
30523.6
30544.6
30591.9
30612.8
30652.4
30658.3
30654.8
30641.1
30627.6
30619.6
30608.6
100000
100000
100000
99999.8
99999
99995.9
99983.4
99940.4
99803.3
99440.8
98606.2
96954.8
94133.7
90092.1
85160.1
79830.9
74570.9
69584.9
64970.6
60717.7
56849.1
53299.3
50113.4
47202.7
44586.4
42252.7
40170.6
38334.6
36721.2
35334.5
34161
33201.2
32424.1
31811.9
31341.1
31017.2
30757
30630.3
30532.8
30489.2
30476.7
30472.8
30473.1
30474.5
30478.9
30489.5
30511.5
30507.7
30511.8
30522.6
30544.8
30591
30610.4
30642
30652.4
30648.3
30633
30619.9
30619.2
30622.3
100000
100000
100000
99999.8
99999
99995.9
99983.5
99940.8
99804.6
99444
98613.5
96968.9
94156.3
90122.3
85193.9
79862.4
74597.9
69603.7
64988.8
60734.2
56867.7
53321.8
50125.9
47216.8
44602.8
42266.6
40181.2
38343.9
36725.5
35340.8
34167.5
33202.5
32423.5
31809.9
31341.9
31014.3
30757.1
30631.3
30529.6
30489.4
30475.9
30471.8
30472.2
30473.7
30478
30488.5
30510.1
30506.1
30510.2
30520.9
30543.4
30586.7
30602.9
30628.7
30644.4
30640.2
30625.6
30617
30619
30633.2
100000
100000
100000
99999.8
99999
99995.9
99983.7
99941.2
99805.8
99447.4
98621.2
96984.4
94183
90162
85246.7
79927.5
74671.9
69686.5
65071.5
60815.7
56945.9
53391.7
50203.9
47288.6
44667.8
42329.7
40242.7
38401.5
36782.4
35389.4
34207.6
33243.3
32458.8
31839.1
31363.9
31034.2
30768.5
30639.4
30536
30491.6
30476.1
30471.3
30471.6
30473
30477.3
30487.6
30508.7
30504.9
30509
30519.8
30542.6
30581.8
30594.9
30619.2
30638.6
30634.2
30619.4
30618.2
30623.2
30637.8
100000
100000
100000
99999.8
99999
99995.9
99983.8
99941.5
99807
99450.4
98627.9
96997.4
94204
90190.2
85278.4
79957.3
74697.8
69704.7
65089.2
60831.9
56963.8
53413.1
50216.3
47302.8
44683.7
42343.1
40253
38410.6
36787.2
35395.7
34213.8
33244.7
32458.5
31837.5
31364.8
31032.3
30768.6
30640.3
30533.2
30491.8
30475.2
30470.6
30470.9
30472.3
30476.5
30486.6
30507.5
30504.1
30508
30518.5
30541
30576.1
30585.7
30609.9
30631.6
30627.7
30617.9
30620.3
30627.9
30637
100000
100000
100000
99999.8
99999.1
99996
99983.9
99941.9
99808.2
99453.5
98635.1
97012
94229.1
90227.4
85327.7
80018
74766.6
69781.8
65166.1
60907.7
57036.6
53478.4
50288.4
47369.1
44744.2
42401.8
40310.4
38464.1
36839.7
35440.9
34251
33282.7
32492
31864.7
31385.4
31050.6
30779.3
30648
30539
30493.8
30475.5
30470.2
30470.4
30471.8
30475.9
30485.9
30506.7
30503.6
30507.5
30517.6
30539.6
30570.9
30578
30604.3
30625.2
30622.9
30620.2
30622.9
30629.3
30633.8
100000
100000
100000
99999.8
99999.1
99996
99984
99942.3
99809.2
99456.3
98641.3
97024
94248.5
90253.5
85357.3
80046.1
74791.2
69799.4
65183.2
60923.5
57053.9
53498.8
50301.1
47383.2
44759.6
42414.7
40320.4
38473.1
36845
35447.3
34257.1
33284.2
32491.9
31863.4
31386.3
31049.1
30779.5
30648.5
30536.5
30493.8
30474.7
30469.6
30469.9
30471.3
30475.3
30485.2
30506.1
30503.3
30507.1
30516.7
30537.3
30565.9
30571.9
30598.5
30619.1
30622.3
30622.4
30624.8
30628.5
30630.8
100000
100000
100000
99999.8
99999.1
99996
99984.1
99942.6
99810.3
99459.2
98648.1
97037.7
94272.1
90288.5
85403.6
80102.8
74855.3
69871.1
65254.8
60993.9
57121.8
53559.9
50367.3
47444.7
44816
42469.4
40373.8
38522.8
36893.5
35489.3
34291.7
33319.6
32523.3
31888.9
31405.5
31066.2
30789.7
30655.5
30541.4
30495.6
30475
30469.4
30469.6
30470.9
30475
30484.9
30505.8
30503.2
30506.8
30516
30535.1
30562.4
30569.8
30595.5
30615.4
30623.3
30623.7
30625.9
30627.4
30629.8
100000
100000
100000
99999.8
99999.1
99996
99984.1
99942.9
99811.3
99461.7
98653.8
97048.7
94290
90312.6
85431
80129.1
74878.7
69888.1
65271.3
61009.4
57138.4
53579.2
50380.4
47458.6
44830.8
42481.8
40383.5
38531.7
36899.3
35495.7
34297.7
33321.2
32523.4
31887.8
31406.5
31064.9
30789.8
30655.6
30539.3
30495.2
30474.5
30469.1
30469.3
30470.7
30474.7
30484.6
30505.5
30503
30506.6
30515.3
30532.9
30559.6
30569
30591.3
30613.7
30624.4
30624.3
30625.5
30626
30629.8
100000
100000
100000
99999.8
99999.1
99996.1
99984.2
99943.2
99812.4
99464.4
98660.1
97061.6
94312.3
90345.6
85474.6
80182.1
74938.5
69954.8
65337.9
61074.5
57201.6
53636.3
50441.1
47515.5
44883.4
42532.9
40433.3
38577.9
36944.1
35534.8
34330
33354
32552.8
31912.2
31424.5
31080.7
30799.3
30662
30543.3
30496.7
30475
30469.1
30469.3
30470.5
30474.6
30484.4
30505.2
30503
30506.4
30514.8
30531.2
30558.3
30570.6
30589
30613.9
30625.3
30625.2
30624
30623.2
30629.2
100000
100000
100000
99999.8
99999.1
99996.1
99984.3
99943.5
99813.3
99466.8
98665.3
97071.6
94328.6
90367.8
85499.9
80206.7
74960.6
69971.2
65353.9
61090.1
57217.6
53654.5
50454.9
47529.1
44897.6
42544.8
40442.8
38586.6
36950.1
35541.3
34335.9
33356
32553.1
31911.1
31425.6
31079.8
30799.3
30661.8
30541.5
30496.3
30474.6
30468.9
30469.2
30470.5
30474.5
30484.3
30505
30502.9
30506.2
30514.3
30529.7
30557.5
30573
30584.3
30613.1
30625.7
30625.9
30622
30619.7
30626.9
100000
100000
100000
99999.8
99999.1
99996.1
99984.4
99943.8
99814.2
99469.4
98671.4
97083.9
94349.8
90399
85541
80256.5
75016.4
70033.2
65415.9
61150.1
57276.5
53708
50510.2
47582
44946.8
42592.6
40489.4
38629.7
36991.7
35577.7
34366.1
33386.3
32580.5
31934.5
31442.3
31094.2
30808.1
30667.8
30545.1
30497.7
30475.2
30469.1
30469.3
30470.5
30474.5
30484.2
30504.7
30502.7
30506
30513.9
30528.8
30557.6
30575.9
30583.1
30610
30625.6
30625.6
30621.2
30616.8
30622.4
100000
100000
100000
99999.8
99999.1
99996.1
99984.5
99944.1
99815.1
99471.5
98676.1
97093
94364.7
90419.2
85564.2
80279.3
75037.2
70049
65431.3
61165.9
57291.8
53725.2
50524.2
47595
44960.2
42604
40498.6
38638.2
36997.9
35584.1
34371.9
33388.6
32581.1
31933.4
31443.4
31093.9
30808.2
30667.6
30543.6
30497.3
30475
30469.1
30469.4
30470.6
30474.5
30484.1
30504.4
30502.5
30505.7
30513.6
30528.2
30557.7
30577.8
30582.8
30605.3
30624.4
30624.1
30621.2
30614.5
30616.5
100000
100000
100000
99999.8
99999.1
99996.1
99984.6
99944.4
99816
99473.9
98681.9
97104.7
94384.8
90449
85603.1
80326.1
75089.4
70106.7
65489
61221.3
57346.8
53775.3
50575.5
47644.5
45006.4
42648.8
40542.1
38678.4
37036.5
35618.2
34400.2
33416.7
32606.6
31955.4
31459
31107
30816.3
30673.2
30546.9
30498.6
30475.7
30469.4
30469.6
30470.7
30474.5
30484
30504.1
30502.2
30505.4
30513.3
30528.1
30558.1
30579.9
30584.4
30599.8
30622.4
30622
30620.8
30613
30610.1
100000
100000
100000
99999.8
99999.1
99996.2
99984.6
99944.6
99816.7
99475.8
98686.1
97112.9
94398.3
90467.3
85624.4
80347.3
75109
70122
65503.9
61237
57361.4
53791.4
50588.5
47656.8
45019
42659.6
40550.9
38686.7
37042.8
35624.5
34405.8
33419.3
32607.5
31954.5
31460.2
31107
30816.5
30673.2
30545.8
30498
30475.9
30469.4
30469.7
30470.9
30474.6
30483.9
30503.7
30501.8
30505.1
30513
30528
30558.4
30581.5
30586
30594.6
30619.4
30619.4
30618.9
30611.7
30604.4
100000
100000
100000
99999.8
99999.1
99996.2
99984.7
99944.9
99817.6
99478.2
98691.7
97124.1
94417.6
90495.7
85661.3
80391.2
75157.7
70175.5
65557.6
61288.1
57412.7
53838.4
50636.7
47703.1
45062.3
42701.7
40591.8
38724.4
37078.8
35656.3
34432.5
33445.3
32631.2
31974.4
31474.6
31119
30824
30678.4
30549.2
30499.1
30476.8
30469.7
30469.9
30471
30474.6
30483.8
30503.4
30501.3
30504.7
30512.7
30528.1
30558.8
30582.9
30588.1
30591.7
30615.2
30616.6
30616.1
30609.1
30599.4
100000
100000
100000
99999.8
99999.1
99996.2
99984.8
99945.1
99818.3
99479.9
98695.4
97131.4
94429.6
90512.1
85680.6
80410.8
75176.1
70190.3
65571.8
61303.7
57426.6
53853.5
50649.1
47714.7
45074.1
42711.7
40600.2
38732.2
37084.9
35662.5
34437.8
33448.2
32632.5
31973.6
31475.9
31119
30824.4
30678.5
30548.5
30498.2
30477.1
30469.8
30470
30471.1
30474.6
30483.6
30503
30500.8
30504.2
30512.3
30528
30559.1
30583.9
30589.7
30590.9
30609.6
30613.5
30612.9
30605.2
30594.1
100000
100000
100000
99999.8
99999.1
99996.2
99984.8
99945.4
99819.1
99482.2
98700.8
97142.2
94448.1
90539.3
85715.7
80452.2
75221.8
70240
65621.8
61350.7
57474.5
53897.6
50694.3
47758.3
45114.9
42751.3
40638.5
38767.7
37118.6
35692.4
34463.1
33472.3
32654.4
31991.6
31489.3
31130.1
30831.3
30683.3
30551.8
30499.1
30478.1
30470.1
30470.3
30471.2
30474.6
30483.5
30502.5
30500.4
30503.8
30511.9
30527.8
30559.2
30584.6
30590.9
30591.5
30603.5
30610.6
30609.7
30600.8
30588.2
100000
100000
100000
99999.8
99999.1
99996.2
99984.9
99945.6
99819.7
99483.7
98704.1
97148.6
94458.8
90554.1
85733.2
80470.3
75239.1
70254.3
65635.5
61366.3
57487.7
53911.7
50706.2
47769.1
45125.9
42760.7
40646.5
38775
37124.5
35698.3
34468.1
33475.2
32656
31991.1
31490.7
31130.3
30831.9
30683.6
30551.5
30498.1
30478.6
30470.1
30470.3
30471.2
30474.5
30483.1
30502
30499.9
30503.4
30511.5
30527.5
30559.3
30585.1
30591.6
30592.2
30598.1
30607.7
30606.5
30596.6
30581.7
100000
100000
100000
99999.8
99999.1
99996.2
99985
99945.8
99820.5
99485.9
98709.3
97159.1
94476.7
90580.2
85766.6
80509.2
75281.8
70300.5
65682
61409.6
57532.4
53953.2
50748.5
47810.1
45164.3
42798
40682.4
38808.4
37156.1
35726.4
34492
33497.7
32676.4
32007.7
31503.2
31140.4
30838.4
30688
30554.6
30498.8
30479.8
30470.4
30470.5
30471.3
30474.4
30483
30501.6
30499.4
30503
30511.1
30527.1
30559.1
30585.5
30591.6
30592.3
30593.8
30604.5
30603.6
30593.5
30575.1
100000
100000
100000
99999.8
99999.1
99996.3
99985.1
99946.3
99821.9
99489.4
98717.2
97174.5
94502.4
90615.9
85809.8
80555.2
75326.1
70338.2
65718.1
61451.6
57567
53989.3
50779.8
47837.9
45192.1
42822
40703.1
38827.3
37171.8
35741.9
34504.7
33505.7
32681.1
32007.9
31507.2
31141.6
30840.1
30688.9
30554.5
30495.8
30479.8
30469
30469.1
30469.9
30472.9
30481.2
30499.8
30498.2
30501.7
30509.9
30526
30558.6
30586
30589.8
30591
30585.5
30596
30596.6
30587.3
30559.8
100000
100000
100000
99999.8
99999.1
99996.3
99985
99945.9
99820.7
99485.5
98707.6
97153.8
94466
90561.2
85739.4
80476.6
75248.9
70269.1
65653.9
61373.8
57507.9
53927.3
50728
47792.4
45146.9
42782.2
40668.8
38795.7
37145.5
35716.1
34481.3
33490.7
32672.1
32004.4
31498.1
31132.4
30833.6
30683.9
30551
30489.3
30481.3
30469.6
30469.8
30470.7
30474
30482.7
30501.6
30499.5
30502.7
30510.7
30527.4
30561.9
30588.1
30585.7
30584.8
30573.9
30585.3
30590.8
30585.5
30559.5
100000
100000
100000
99999.8
99999.1
99996.3
99985.1
99946.4
99822.1
99489.3
98716.7
97172.9
94499.8
90612.1
85806.4
80554.6
75328.7
70344.1
65723.7
61458.6
57572.8
53989.4
50782.8
47838.6
45192.6
42823.5
40706.2
38828.9
37175.6
35745.3
34504.2
33508.2
32684.9
32012.9
31510.8
31140.2
30840.8
30690.3
30556.4
30489.6
30482.3
30469.3
30469.2
30469.9
30473
30481.8
30501.4
30499.8
30503.2
30511.1
30526.8
30560.7
30585.6
30583.3
30582.9
30573.6
30575.9
30583.9
30579
30555
100000
100000
100000
99999.8
99999.1
99996.3
99985.1
99946.2
99821.5
99487.1
98710.4
97157.6
94470.8
90564.2
85739
80472.2
75242.7
70260.2
65646.8
61362.4
57502.3
53922.9
50725.7
47790.8
45146
42780.8
40667.8
38794.4
37144.6
35715.3
34479.1
33487.6
32669.3
31997.2
31496.4
31127.8
30831.2
30682.6
30551.7
30484.4
30479.8
30473
30470.5
30471
30473.8
30482.2
30501.1
30500.2
30503.5
30511.5
30527.4
30561.3
30584.3
30584.7
30583.8
30580.3
30571.6
30578.1
30575.4
30557.6
100000
100000
100000
99999.8
99999.1
99996.3
99985.2
99946.5
99822.4
99489.5
98716.8
97171.7
94497.4
90607.7
85801.4
80551.9
75329.9
70349.3
65729.3
61466.3
57579.7
53989
50784.7
47839
45192.6
42825
40709.6
38832.4
37181
35751.5
34509.6
33514.7
32690.3
32020.2
31516.5
31141.4
30843.4
30694.5
30564
30491.1
30485
30477.3
30473.7
30474
30476
30482.7
30499.1
30499.9
30502.7
30511.3
30527.2
30559
30579
30580.3
30581.9
30578.7
30568.2
30575.7
30574
30557.8
100000
100000
100000
99999.8
99999.1
99996.3
99985.2
99946.5
99822.3
99488.6
98713.2
97161.5
94475.9
90568
85739.8
80469
75237.2
70251.4
65639.2
61351.2
57495.8
53917.3
50723.6
47789.3
45144.3
42778.6
40666
38792.7
37142.5
35714.2
34477.3
33484.3
32663.8
31990.5
31493.3
31124.7
30829.5
30681
30554.1
30484.3
30479.7
30479
30475.4
30475.1
30476.8
30482.6
30496.4
30498.4
30499.6
30508.2
30524.9
30554.6
30572.4
30572.3
30573.1
30570.3
30561.6
30569.9
30567.7
30549.2
100000
100000
100000
99999.8
99999.1
99996.3
99985.3
99946.7
99822.9
99490.1
98717.3
97171
94495.5
90602.9
85794.8
80546.9
75329
70353.2
65734.8
61473.5
57587.4
53990.5
50785.9
47839.8
45192.4
42826.5
40712.9
38836.2
37186.8
35759.3
34517.7
33524.1
32698.5
32027.9
31522.4
31144.1
30844.9
30694.3
30566.7
30492.6
30486.1
30484
30478.2
30478.4
30479.7
30484.6
30496.4
30503.1
30499.1
30505.8
30523.7
30551.8
30565.5
30565.3
30565.1
30563.8
30551.9
30557.9
30555.2
30536.8
100000
100000
100000
99999.8
99999.1
99996.4
99985.3
99946.8
99823.1
99490
98715.9
97165.2
94481
90572.1
85741.4
80467.3
75232.8
70243.3
65631.5
61337.5
57487.2
53911.2
50721.5
47787.4
45141.9
42776.1
40663.9
38789.8
37139
35711.8
34474.6
33480.7
32657.2
31984.9
31489.9
31121.6
30827.3
30678
30551.3
30481.5
30477.3
30477
30477.7
30476.3
30477.3
30482
30493
30504.6
30496.4
30501
30515.8
30551.1
30562.2
30561.9
30559.9
30560.2
30546.1
30548.4
30546.3
30531.7
100000
100000
100000
99999.8
99999.2
99996.4
99985.4
99946.9
99823.5
99490.9
98718.4
97171.1
94494.5
90598
85786.7
80539.2
75325.5
70355.1
65739.5
61483.7
57596.9
53992.3
50789.1
47841.4
45192.6
42827.7
40715
38838.4
37190.8
35764.8
34524.1
33532.7
32708.5
32038.3
31529
31147
30846.2
30694.1
30564.5
30491.3
30485.1
30484.1
30481.1
30480.3
30481.4
30485.8
30495.5
30509.3
30500.4
30504.6
30517.2
30553.1
30565.3
30564.9
30562.3
30560.2
30552.3
30549.1
30543.8
30531.1
100000
100000
100000
99999.8
99999.2
99996.4
99985.4
99947.1
99823.9
99491.3
98718.5
97168.8
94486.2
90576.4
85743.8
80466.9
75229.9
70236.2
65624
61323.3
57477.5
53904.2
50718.1
47785.7
45139.9
42774.2
40662.4
38787.1
37136.2
35709
34471.8
33478.6
32653.4
31980
31485.2
31118
30826.1
30677.4
30546.1
30478.2
30475.7
30475.9
30477.7
30478.5
30479.4
30482.9
30492.2
30507.7
30498.6
30502.6
30516.5
30551.9
30562.3
30562.3
30561.7
30556.9
30557.3
30557.6
30542.2
30523.3
100000
100000
100000
99999.8
99999.2
99996.4
99985.5
99947.2
99824.3
99492.1
98720
97172.1
94494.4
90593.5
85777.8
80529
75318.9
70354.1
65742.8
61489.3
57605.8
53994.6
50791.4
47843
45193.1
42828.6
40715.6
38838.3
37191.1
35765.5
34525.3
33536.5
32713.9
32046.7
31536.3
31151.5
30849.4
30698.5
30563.3
30493.6
30488.4
30487.4
30489.3
30486.9
30487.4
30491.2
30500.9
30515.6
30506.1
30509.9
30522.4
30558.7
30567.3
30566.6
30566.4
30561
30559.1
30558.9
30534.9
30516
100000
100000
100000
99999.8
99999.2
99996.4
99985.5
99947.4
99824.7
99492.8
98721
97172.2
94490.9
90580.6
85746.4
80467.6
75228.6
70230.9
65617.3
61312.4
57467.1
53896
50714.4
47783.2
45137.7
42772.8
40661.5
38784.7
37133.7
35705.8
34467.8
33476.5
32651.3
31977.4
31478.3
31111.9
30821.2
30674.1
30535.8
30471.7
30472.9
30473.4
30477.4
30478.2
30479.1
30483.3
30494.3
30511.5
30502.3
30505.9
30519.2
30557.3
30564.7
30564.9
30564.6
30561.1
30553.8