/*--------------------------------*- C++ -*----------------------------------*\
| =========                 |                                                 |
| \\      /  F ield         | OpenFOAM: The Open Source CFD Toolbox           |
|  \\    /   O peration     | Version:  5.x                                   |
|   \\  /    A nd           | Web:      www.OpenFOAM.org                      |
|    \\/     M anipulation  |                                                 |
\*---------------------------------------------------------------------------*/
/*   Windows 32 and 64 bit porting by blueCAPE: http://www.bluecape.com.pt   *\
|  Based on Windows porting (2.0.x v4) by Symscape: http://www.symscape.com   |
\*---------------------------------------------------------------------------*/
FoamFile
{
    version     2.0;
    format      ascii;
    class       surfaceScalarField;
    location    "0.006";
    object      phi;
}
// * * * * * * * * * * * * * * * * * * * * * * * * * * * * * * * * * * * * * //

dimensions      [1 0 -1 0 0 0 0];

internalField   nonuniform List<scalar> 
19740
(
3.03262e-007
-1.67179e-008
1.73135e-006
-1.07254e-007
9.20717e-006
-4.99382e-007
4.44518e-005
-2.20332e-006
0.000198987
-8.55919e-006
0.000808442
-3.02656e-005
0.00299461
-9.14877e-005
0.0100412
-0.000271369
0.0292032
-0.000674567
0.0738734
-0.00139623
0.162716
-0.00223464
0.315644
-0.00351001
0.53409
-0.0044139
0.796638
-0.0041156
1.06888
-0.00324582
1.32358
-0.00221403
1.54869
-0.00171743
1.74162
-0.001313
1.9055
-0.000520619
2.04054
-0.00138215
2.15441
0.00240543
2.24918
-0.00171139
2.312
0.00117578
2.37348
0.00186247
2.42864
0.00115126
2.45669
0.000757978
2.46349
0.00127901
2.47114
0.000662451
2.49086
0.00379576
2.51117
0.00314731
2.51491
0.00158592
2.50411
0.00151281
2.48509
0.00328077
2.46402
-0.00130915
2.45129
0.00112438
2.45457
-0.00330383
2.4759
0.00659206
2.50306
-0.00365351
2.52288
-0.00522105
2.53879
-0.00950541
2.55524
-0.0143876
2.57427
-0.0181696
2.59249
-0.0220324
2.59126
-0.023056
2.52076
-0.0314502
2.34632
-0.0310013
2.17876
-0.0266911
2.03349
-0.0234624
1.91426
-0.0211502
1.82386
-0.0183208
1.75632
-0.0117332
1.70443
-0.00599881
1.67257
-0.00894166
1.6529
-0.00797527
1.64367
-0.0051302
1.63922
-0.00246353
1.63928
0.00273555
1.63862
0.0103112
1.63054
0.0148712
0.0224828
2.88227e-007
-3.03868e-008
1.63524e-006
-1.93418e-007
8.65423e-006
-8.88967e-007
4.1579e-005
-3.87208e-006
0.000185477
-1.47748e-005
0.000751327
-5.12301e-005
0.00277981
-0.000152068
0.00931591
-0.000431565
0.0271121
-0.00105329
0.0686755
-0.00209364
0.151589
-0.00312549
0.294895
-0.00470009
0.500701
-0.0056776
0.749592
-0.0047779
1.00925
-0.00331067
1.25335
-0.00190338
1.46999
-0.00152609
1.65621
-0.00115024
1.81458
0.000104982
1.94603
-0.0022476
2.05696
0.00497221
2.14894
-0.00353749
2.21148
0.00255608
2.27367
0.0035486
2.32669
0.00215308
2.3525
0.000816428
2.36162
0.00115539
2.37478
0.00164097
2.39713
0.00636523
2.41637
0.00490879
2.41863
0.000639726
2.40805
0.000961204
2.39192
0.00251286
2.37506
-0.00502048
2.36815
-0.000995503
2.3793
-0.00500234
2.40243
0.0109329
2.42162
-0.00629313
2.43415
-0.00968142
2.44197
-0.0139947
2.44973
-0.0208611
2.4595
-0.0286429
2.46612
-0.0363787
2.45265
-0.0407355
2.36871
-0.0526422
2.18423
-0.0490145
2.01037
-0.0388261
1.86258
-0.0306559
1.74531
-0.0245194
1.6562
-0.0192177
1.59577
-0.0154301
1.56357
-0.0058175
1.5476
-0.00574131
1.53584
-0.00326114
1.52698
0.00127892
1.52186
0.00624871
1.52443
0.0146977
1.52692
0.0249902
1.52607
0.0340461
0.0367609
2.78022e-007
-4.37268e-008
1.57754e-006
-2.78547e-007
8.35577e-006
-1.28377e-006
4.01877e-005
-5.61389e-006
0.00017953
-2.15549e-005
0.00072836
-7.53508e-005
0.00269897
-0.000226743
0.00905405
-0.000642078
0.0264147
-0.00161592
0.0670114
-0.00325113
0.148079
-0.00502565
0.288346
-0.00770342
0.489885
-0.00952757
0.73356
-0.00843241
0.987577
-0.00623666
1.22618
-0.00392978
1.43763
-0.00307707
1.61922
-0.00225935
1.77338
-0.000578312
1.90194
-0.00278595
2.00803
0.0056523
2.0971
-0.00344559
2.16338
0.00289759
2.21478
0.00445889
2.26378
0.00303353
2.2989
0.00154148
2.31164
0.00194815
2.31444
0.00224536
2.32437
0.0079592
2.34251
0.00694196
2.35331
0.00187058
2.34874
0.00201842
2.33583
0.00399686
2.31751
-0.00580814
2.30165
0.000194387
2.29488
-0.00524802
2.29829
0.00932544
2.31337
-0.00310956
2.32806
-0.0101083
2.33653
-0.0144809
2.34195
-0.0229986
2.34723
-0.0325104
2.35268
-0.0417687
2.34699
-0.0470902
2.28356
-0.0564886
2.11242
-0.0533643
1.95047
-0.047318
1.81798
-0.0406432
1.71452
-0.0335413
1.63448
-0.0302674
1.57578
-0.0245254
1.5358
-0.00454985
1.51181
-0.00515941
1.49526
-0.00347147
1.4868
0.00177372
1.48101
0.0106877
1.47327
0.0211771
1.4702
0.0346301
1.46858
0.0452054
0.0513617
2.65032e-007
-5.49115e-008
1.49639e-006
-3.4857e-007
7.8951e-006
-1.59914e-006
3.78152e-005
-6.96363e-006
0.000168409
-2.65933e-005
0.000681325
-9.24269e-005
0.00252145
-0.000277545
0.00845193
-0.000766845
0.0246628
-0.00194631
0.062614
-0.00385088
0.138579
-0.0058806
0.270453
-0.00875903
0.460784
-0.0107631
0.692153
-0.00922516
0.934686
-0.00654114
1.16349
-0.00379736
1.36702
-0.00302245
1.54233
-0.0020852
1.69112
-0.000463703
1.81663
-0.00202091
1.91892
0.00469974
2.00463
-0.00139223
2.07661
0.00270825
2.12148
0.0053607
2.16259
0.00400284
2.20482
0.00251261
2.22985
0.00284948
2.23334
0.00315911
2.22986
0.00805424
2.23845
0.0041003
2.25584
0.00328313
2.26379
0.00211612
2.2599
0.00336683
2.24955
-0.00464114
2.23436
-0.00151859
2.22429
-0.00574308
2.21977
0.00833961
2.22353
-0.00668672
2.2336
-0.00931034
2.24154
-0.0129783
2.24454
-0.0212108
2.24458
-0.0307039
2.24253
-0.0400781
2.22492
-0.0460625
2.13885
-0.0528031
1.94963
-0.0502304
1.7875
-0.0466925
1.66323
-0.0417676
1.57232
-0.0353133
1.50564
-0.030577
1.45569
-0.0217936
1.4228
-0.00710521
1.40728
-0.00432658
1.39754
0.000109031
1.39047
0.00605655
1.38857
0.0146249
1.38482
0.0260695
1.37907
0.0412872
1.37835
0.0561056
0.0658211
2.54847e-007
-6.55287e-008
1.43833e-006
-4.15876e-007
7.59291e-006
-1.90978e-006
3.63958e-005
-8.3325e-006
0.000162306
-3.19291e-005
0.00065764
-0.000111498
0.00243783
-0.000337869
0.00818052
-0.000929429
0.0239394
-0.00241297
0.0608944
-0.00480663
0.13497
-0.0075097
0.263765
-0.0112991
0.449858
-0.0141239
0.676129
-0.0125027
0.913152
-0.00919607
1.13662
-0.00563525
1.33518
-0.00441639
1.506
-0.00300138
1.65106
-0.00139551
1.77304
-0.00161851
1.87232
0.00360796
1.95556
0.000107997
2.0248
0.00283066
2.06847
0.00624605
2.10832
0.00436023
2.14858
0.00343783
2.17199
0.00380685
2.17473
0.00465165
2.17099
0.00817719
2.17828
0.00208677
2.1943
0.0048231
2.20069
0.00360813
2.19522
0.00325207
2.18354
-0.00252363
2.16794
-0.000520329
2.1561
-0.00610385
2.14953
0.00708347
2.15147
-0.00942358
2.15989
-0.00771916
2.16628
-0.00985561
2.16854
-0.0185167
2.16824
-0.0285639
2.16578
-0.037691
2.14736
-0.0427108
2.06386
-0.0466448
1.88232
-0.0459443
1.72646
-0.0451035
1.6072
-0.0419774
1.51995
-0.0357853
1.45981
-0.0295525
1.41413
-0.0213535
1.38772
-0.0142809
1.365
-0.00850043
1.35983
-0.00181974
1.35653
0.00782426
1.3537
0.019337
1.34913
0.0322383
1.34334
0.0482361
1.34122
0.0669111
0.0791745
2.43417e-007
-7.46001e-008
1.36851e-006
-4.72339e-007
7.2024e-006
-2.16346e-006
3.44073e-005
-9.41839e-006
0.00015304
-3.5998e-005
0.000618548
-0.000125375
0.00229001
-0.000380159
0.00767778
-0.00102951
0.0224665
-0.00269868
0.0571662
-0.00531894
0.126846
-0.0083151
0.24831
-0.0122456
0.42444
-0.0153248
0.639564
-0.0133744
0.866071
-0.00968261
1.08049
-0.00568378
1.27167
-0.0044624
1.43659
-0.00291366
1.57678
-0.00127833
1.6949
-0.000996901
1.79168
0.0029724
1.87327
0.00165604
1.93997
0.00249073
1.98304
0.00607861
2.02485
0.00572341
2.06451
0.00423268
2.08503
0.0044159
2.0874
0.0039215
2.08733
0.00780956
2.10042
0.00220197
2.11692
0.004556
2.1215
0.00298937
2.11591
0.00213664
2.10428
-0.00164902
2.08856
-0.00266879
2.08044
-0.00622664
2.07752
0.0052045
2.0855
-0.0111254
2.09634
-0.00790764
2.10281
-0.00915931
2.10429
-0.0167167
2.1026
-0.0256464
2.09809
-0.0336989
2.0787
-0.0379732
2.00095
-0.0434179
1.82401
-0.0442218
1.66726
-0.0426588
1.54514
-0.0396721
1.45565
-0.0339387
1.39576
-0.0269093
1.35096
-0.0204918
1.32417
-0.0183395
1.30122
-0.00908572
1.29326
-0.000256582
1.28906
0.011766
1.28635
0.0250195
1.28451
0.0385244
1.28094
0.0539637
1.28058
0.0736246
0.0900722
2.33634e-007
-8.30207e-008
1.31249e-006
-5.25329e-007
6.9093e-006
-2.4068e-006
3.30214e-005
-1.04887e-005
0.000147041
-4.01752e-005
0.000595115
-0.00014037
0.00220684
-0.000428499
0.00740665
-0.00115638
0.0217398
-0.00308231
0.0554357
-0.00610022
0.123218
-0.00971061
0.241601
-0.0143817
0.413544
-0.018253
0.623732
-0.0163344
0.844934
-0.012141
1.0542
-0.00740315
1.2406
-0.00576033
1.4012
-0.00370342
1.53783
-0.00215208
1.65274
-0.000612632
1.74665
0.00212107
1.82571
0.00306847
1.89041
0.00256527
1.93222
0.00724338
1.97193
0.00729386
2.01
0.0044837
2.03021
0.00609654
2.03216
0.00430479
2.03106
0.00777712
2.04157
0.00299133
2.0571
0.00422478
2.06135
0.00411205
2.0547
0.00220862
2.04241
0.000702214
2.02688
-0.00215486
2.01693
-0.00579305
2.01179
0.00296411
2.0183
-0.0131793
2.02933
-0.00637403
2.03687
-0.00778374
2.04025
-0.0159198
2.04136
-0.0253457
2.04146
-0.0336433
2.0313
-0.0379063
1.97084
-0.0402556
1.80808
-0.0418239
1.65539
-0.0416294
1.5353
-0.0404233
1.4478
-0.0369847
1.38641
-0.0285374
1.34239
-0.0255514
1.31139
-0.0219658
1.29124
-0.00746875
1.27778
0.00144048
1.26935
0.0135426
1.26583
0.0288217
1.26401
0.0437853
1.26155
0.0608952
1.25581
0.0793915
0.101444
2.23434e-007
-9.03051e-008
1.25138e-006
-5.70417e-007
6.57241e-006
-2.60908e-006
3.13264e-005
-1.13551e-005
0.000139203
-4.34382e-005
0.000562202
-0.000151587
0.00208237
-0.000463416
0.0069829
-0.0012386
0.0204925
-0.00332664
0.0522583
-0.00653517
0.116242
-0.0104548
0.228212
-0.0152395
0.391297
-0.0194105
0.59138
-0.0172728
0.802898
-0.0126925
1.0038
-0.00753629
1.18334
-0.00588158
1.33843
-0.00372135
1.47044
-0.00214515
1.58168
-0.000203771
1.67311
0.00144173
1.75024
0.00477218
1.81315
0.00223044
1.85428
0.0066776
1.89459
0.00695553
1.93203
0.00538843
1.95097
0.00523119
1.95352
0.00461132
1.95481
0.00710454
1.96814
0.00390066
1.98344
0.00481417
1.98725
0.00362373
1.98166
0.000803803
1.97019
-0.000287183
1.95475
-0.00321516
1.94719
-0.00588305
1.94473
0.000545499
1.95497
-0.0123566
1.9672
-0.00825534
1.97498
-0.00829328
1.97801
-0.0158111
1.97826
-0.0247826
1.97701
-0.033138
1.96568
-0.0382676
1.90741
-0.0412748
1.74798
-0.0423961
1.59857
-0.042167
1.47976
-0.0408998
1.3912
-0.0366611
1.32765
-0.0298078
1.28296
-0.0267798
1.25256
-0.0192074
1.23639
-0.005491
1.22629
0.00378251
1.21537
0.0152696
1.21116
0.0296732
1.21153
0.04544
1.21085
0.0653209
1.20734
0.0851001
0.109294
2.14252e-007
-9.69501e-008
1.19872e-006
-6.11886e-007
6.29588e-006
-2.79861e-006
3.0012e-005
-1.21867e-005
0.000133477
-4.66893e-005
0.00053969
-0.000163315
0.00200197
-0.000501876
0.00671961
-0.00133842
0.0197806
-0.00364022
0.0505548
-0.00716992
0.112667
-0.0116436
0.221589
-0.0170392
0.38056
-0.021963
0.575864
-0.0199369
0.782333
-0.0149463
0.978303
-0.00908692
1.15323
-0.00707803
1.30416
-0.00442161
1.43277
-0.00299299
1.54099
0.000284757
1.62978
0.000601599
1.7046
0.00558722
1.76545
0.00223703
1.8054
0.00604635
1.84395
0.00832487
1.87992
0.00701684
1.89832
0.00620868
1.90028
0.00567877
1.90078
0.00690057
1.91239
0.00540526
1.92694
0.00517479
1.93048
0.00464301
1.92366
0.00190879
1.91162
0.0019179
1.89655
-0.00315454
1.88747
-0.0058245
1.88292
-0.00130334
1.8924
-0.0117127
1.90518
-0.00720294
1.91365
-0.0074396
1.9184
-0.0162542
1.92081
-0.026003
1.92199
-0.0346904
1.91414
-0.0400695
1.86393
-0.0421624
1.71581
-0.0429759
1.57101
-0.0434643
1.45526
-0.0427725
1.36925
-0.0388674
1.30828
-0.0343287
1.26372
-0.0268851
1.23291
-0.01635
1.21543
-0.00537227
1.20457
0.00453241
1.19442
0.0173869
1.18757
0.0301628
1.18771
0.0476587
1.18661
0.0709804
1.18164
0.09412
0.119963
2.05067e-007
-1.02736e-007
1.14455e-006
-6.4747e-007
6.00099e-006
-2.95814e-006
2.85451e-005
-1.28706e-005
0.000126747
-4.92808e-005
0.000511602
-0.000172309
0.00189591
-0.000530435
0.00635859
-0.00140656
0.0187154
-0.00384869
0.0478286
-0.00753862
0.106645
-0.0123196
0.20994
-0.0178314
0.361032
-0.0230564
0.547185
-0.0209184
0.744722
-0.0155779
0.932907
-0.00933066
1.10146
-0.00726951
1.24728
-0.00449504
1.37156
-0.00313202
1.47632
0.000437748
1.56256
-6.87415e-005
1.63534
0.00762018
1.69496
0.00157586
1.73403
0.00719838
1.77231
0.00819579
1.80791
0.00648135
1.82612
0.00602748
1.82892
0.0055584
1.83048
0.00631658
1.84309
0.00672129
1.8577
0.00637351
1.86152
0.00466926
1.85628
0.000832897
1.8454
0.000564393
1.83026
-0.00452008
1.8226
-0.0056297
1.81975
-0.0030825
1.83076
-0.00961917
1.84374
-0.00825861
1.85244
-0.00809784
1.85579
-0.0161373
1.85624
-0.0256706
1.85569
-0.0348318
1.84691
-0.0413835
1.79692
-0.0435876
1.65294
-0.0456213
1.51225
-0.0451962
1.39882
-0.0435728
1.3132
-0.0393923
1.25234
-0.0340896
1.20936
-0.0245594
1.17967
-0.0134146
1.16183
-0.00459064
1.15182
0.00496941
1.13942
0.0180403
1.13633
0.0318234
1.13858
0.0515416
1.14023
0.0761792
1.13899
0.103274
0.129832
1.96566e-007
-1.07939e-007
1.09583e-006
-6.79638e-007
5.74457e-006
-3.10457e-006
2.73219e-005
-1.35114e-005
0.000121391
-5.17919e-005
0.000490413
-0.000181422
0.00181975
-0.00056081
0.00610817
-0.00148553
0.0180313
-0.00410472
0.046181
-0.00805182
0.103177
-0.0133283
0.203488
-0.0193523
0.350563
-0.0252687
0.532091
-0.0233145
0.724814
-0.0176401
0.908325
-0.0107739
1.07246
-0.00833787
1.21426
-0.00509288
1.33525
-0.00385559
1.43714
0.000758197
1.52101
-0.00109176
1.5916
0.0101636
1.64936
0.0014935
1.68718
0.00853123
1.72363
0.00878962
1.75802
0.00723167
1.77611
0.00680009
1.77837
0.0063576
1.77877
0.00624705
1.78979
0.00793784
1.80391
0.00732477
1.80798
0.00542599
1.80181
0.00166121
1.79062
0.00174873
1.7764
-0.00448759
1.7676
-0.00579963
1.76305
-0.00412201
1.77284
-0.00735603
1.78565
-0.007054
1.79417
-0.00723818
1.79893
-0.0165685
1.80137
-0.0269047
1.80253
-0.0362353
1.79493
-0.0422251
1.74915
-0.0441431
1.61136
-0.0469501
1.47608
-0.047756
1.36848
-0.0465316
1.2877
-0.0421738
1.22863
-0.0323762
1.18663
-0.023518
1.15712
-0.0144067
1.13829
-0.00609638
1.12753
0.00415046
1.11222
0.0186975
1.11092
0.0348029
1.11304
0.0573889
1.11345
0.0829056
1.11259
0.111826
0.141526
1.88251e-007
-1.12477e-007
1.0474e-006
-7.07325e-007
5.48359e-006
-3.22868e-006
2.60366e-005
-1.40437e-005
0.000115538
-5.38242e-005
0.00046614
-0.000188557
0.00172831
-0.000583912
0.00579727
-0.00154202
0.017113
-0.00428186
0.0438243
-0.00836203
0.0979494
-0.0139344
0.193305
-0.0200772
0.333361
-0.0262993
0.506607
-0.0243181
0.691104
-0.0183614
0.867358
-0.0111075
1.02556
-0.00857908
1.1626
-0.00517169
1.27955
-0.00405825
1.37823
0.001247
1.45953
-0.00176111
1.52805
0.0104272
1.58479
0.000835652
1.62172
0.00778235
1.65759
0.00971729
1.6916
0.00786173
1.70967
0.0071323
1.71273
0.00669357
1.7139
0.00612485
1.72523
0.00950613
1.73939
0.00888463
1.74376
0.00590338
1.73916
0.00149498
1.72921
0.00196705
1.71476
-0.00503205
1.70704
-0.00534115
1.70362
-0.0053325
1.71435
-0.00589648
1.7276
-0.00735659
1.73703
-0.00789915
1.74123
-0.016764
1.74211
-0.026695
1.74158
-0.0358432
1.73347
-0.0422114
1.69032
-0.0457816
1.55936
-0.0541888
1.42587
-0.0510074
1.31846
-0.0469865
1.23744
-0.0418672
1.18067
-0.03018
1.1396
-0.0215491
1.10994
-0.0147304
1.09268
-0.00828146
1.07832
0.00333588
1.06641
0.0201439
1.06879
0.0405157
1.0695
0.0626548
1.07078
0.0875788
1.07217
0.116544
0.149627
1.80441e-007
-1.16507e-007
1.00273e-006
-7.31961e-007
5.24829e-006
-3.34049e-006
2.49117e-005
-1.45315e-005
0.000110591
-5.57435e-005
0.000446472
-0.000195577
0.0016572
-0.0006077
0.00556267
-0.00160472
0.0164652
-0.0044904
0.0422523
-0.00877418
0.0946288
-0.0147865
0.18709
-0.0213604
0.323244
-0.0282133
0.49202
-0.0264734
0.671919
-0.0202653
0.843747
-0.0124574
0.997734
-0.00952841
1.13093
-0.00565505
1.2447
-0.00461924
1.34062
0.0013087
1.41977
-0.00291592
1.48623
0.0116715
1.5412
0.000836478
1.57699
0.0069107
1.61106
0.0103684
1.64398
0.00876328
1.66214
0.00806897
1.66482
0.00761451
1.66462
0.00649716
1.67444
0.010431
1.68827
0.0101504
1.69318
0.00645062
1.68799
0.00262203
1.67786
0.0030392
1.66459
-0.00498538
1.65576
-0.00458729
1.65095
-0.00503265
1.65982
-0.00428475
1.67309
-0.00549841
1.68283
-0.00710581
1.68896
-0.0176786
1.69255
-0.0284767
1.69495
-0.037901
1.69143
-0.0440115
1.65611
-0.0447373
1.53828
-0.057696
1.4024
-0.0558807
1.29712
-0.0511595
1.21848
-0.0438155
1.16227
-0.0312339
1.12219
-0.02186
1.09236
-0.0148739
1.07488
-0.0100225
1.05603
0.00465574
1.04857
0.0244838
1.04794
0.0465851
1.04642
0.0673885
1.0454
0.0925587
1.04455
0.12073
0.155554
1.72893e-007
-1.20011e-007
9.5918e-007
-7.53116e-007
5.01549e-006
-3.43539e-006
2.37746e-005
-1.49385e-005
0.000105446
-5.73116e-005
0.000425262
-0.000201158
0.00157752
-0.000626149
0.00529224
-0.00165137
0.0156664
-0.00464035
0.0401992
-0.00903387
0.0900576
-0.015323
0.178142
-0.0220254
0.308032
-0.0291792
0.469316
-0.027476
0.64165
-0.0210511
0.806718
-0.0128782
0.955165
-0.00982733
1.08393
-0.00579701
1.19393
-0.00485273
1.28683
0.00160898
1.36348
-0.00371684
1.42795
0.0131904
1.48192
0.000155753
1.51684
0.00830676
1.55034
0.0114054
1.58276
0.00953651
1.6007
0.00851923
1.60403
0.00798336
1.60473
0.0065404
1.61474
0.0118027
1.62838
0.0116906
1.63339
0.00716238
1.62955
0.00256183
1.62063
0.00411442
1.60711
-0.00529857
1.59928
-0.0038876
1.59525
-0.00506101
1.60499
-0.003757
1.61875
-0.00475305
1.62944
-0.00802871
1.63495
-0.0182345
1.63713
-0.0289615
1.63819
-0.0386588
1.63481
-0.0455087
1.60731
-0.0488536
1.50354
-0.0615987
1.36815
-0.0586774
1.25994
-0.0522053
1.17913
-0.0433069
1.12186
-0.0323832
1.08162
-0.0226976
1.0531
-0.0147232
1.03393
-0.00867347
1.01898
0.00994315
1.01373
0.0301114
1.0098
0.0496732
1.00765
0.0707005
1.0061
0.095698
1.00728
0.122509
0.156227
1.65748e-007
-1.23084e-007
9.18435e-007
-7.71639e-007
4.80088e-006
-3.51933e-006
2.27476e-005
-1.53034e-005
0.000100916
-5.87569e-005
0.000407176
-0.0002065
0.00151178
-0.000644584
0.0050748
-0.0017012
0.0150594
-0.00481037
0.0387153
-0.00936361
0.086904
-0.0160381
0.172209
-0.0231141
0.298332
-0.0308321
0.4553
-0.0294091
0.623236
-0.0228158
0.784107
-0.0141537
0.928555
-0.0107008
1.05365
-0.00625229
1.1606
-0.00559097
1.25085
0.00267065
1.3255
-0.00492235
1.38807
0.0145097
1.44019
0.000228418
1.47412
0.00908572
1.50619
0.0120428
1.53752
0.0103709
1.5553
0.00922836
1.55828
0.00863744
1.55797
0.00685739
1.56689
0.0120565
1.58023
0.0132136
1.58559
0.00784114
1.58122
0.00352832
1.57195
0.00341354
1.5597
-0.0059684
1.55113
-0.00328343
1.54648
-0.00475115
1.55464
-0.00247314
1.56815
-0.00335003
1.57881
-0.00794979
1.58587
-0.0198765
1.59059
-0.0317258
1.59449
-0.0421313
1.59507
-0.0495396
1.57307
-0.0514258
1.48401
-0.0623623
1.35023
-0.0604527
1.24382
-0.054071
1.16324
-0.0444429
1.10614
-0.0355805
1.06418
-0.0249778
1.03468
-0.0139811
1.01474
-0.00553626
1.0022
0.0162161
0.994157
0.0347738
0.988406
0.0530276
0.983348
0.0744809
0.978777
0.0986889
0.978143
0.12469
0.155593
1.58886e-007
-1.25736e-007
8.79142e-007
-7.87416e-007
4.59207e-006
-3.59023e-006
2.17343e-005
-1.5607e-005
9.63557e-005
-5.99413e-005
0.000388473
-0.000210788
0.00144171
-0.000659088
0.00483748
-0.00173947
0.0143588
-0.00493731
0.0369131
-0.00957954
0.0828794
-0.0165088
0.164303
-0.0237302
0.284824
-0.0317296
0.435012
-0.0303945
0.596004
-0.0236398
0.750588
-0.0146074
0.889852
-0.0110368
1.0108
-0.00642019
1.11426
-0.00582615
1.20166
0.00273961
1.27391
-0.0057753
1.33462
0.016118
1.38572
-0.000446774
1.41876
0.00857206
1.45033
0.0130629
1.48107
0.0111704
1.49834
0.0095899
1.5018
0.008821
1.50254
0.00673044
1.51187
0.0129933
1.52485
0.014582
1.52994
0.00857104
1.52651
0.00356387
1.5183
0.00491938
1.50585
-0.00663946
1.49841
-0.00292569
1.49454
-0.00470022
1.504
-0.00269776
1.51786
-0.00332213
1.52897
-0.00948695
1.53536
-0.0214446
1.53865
-0.0334483
1.54123
-0.0446535
1.54148
-0.0533438
1.5257
-0.0575366
1.44885
-0.0665723
1.31925
-0.0632153
1.21246
-0.0551526
1.12984
-0.0453813
1.06915
-0.0349926
1.0263
-0.0243347
0.997385
-0.0136363
0.979916
-0.00090463
0.967919
0.0208383
0.959818
0.0386343
0.954782
0.0559015
0.949766
0.0768412
0.945799
0.100678
0.945152
0.12646
0.155587
1.52364e-007
-1.28028e-007
8.42074e-007
-8.00971e-007
4.39697e-006
-3.6517e-006
2.08007e-005
-1.58731e-005
9.22279e-005
-6.10064e-005
0.000371941
-0.000214783
0.00138134
-0.000673179
0.00463741
-0.00177897
0.0137945
-0.00507614
0.0355236
-0.00984208
0.0799074
-0.0171072
0.15868
-0.0246587
0.275582
-0.0331567
0.421616
-0.0321258
0.578394
-0.0252716
0.728992
-0.0157986
0.864473
-0.0118552
0.981941
-0.00688397
1.08246
-0.00653332
1.1673
0.00346563
1.23771
-0.00713965
1.29662
0.0175294
1.34585
-0.000671917
1.37802
0.00862193
1.40845
0.0135936
1.43816
0.0118111
1.45508
0.0100451
1.45816
0.0092807
1.45821
0.0069083
1.46685
0.0131585
1.47953
0.0157674
1.48477
0.00929513
1.48086
0.00432195
1.47219
0.00379156
1.46085
-0.00774969
1.45282
-0.0024249
1.4489
-0.00474717
1.45708
-0.00227528
1.47078
-0.00286194
1.48201
-0.0107179
1.48904
-0.0235884
1.49415
-0.036994
1.49891
-0.049379
1.50209
-0.059153
1.49127
-0.0637455
1.42688
-0.0702617
1.30071
-0.0658174
1.19477
-0.0580562
1.11167
-0.0473382
1.04998
-0.0356024
1.00728
-0.0242877
0.978777
-0.0138399
0.96052
0.00319501
0.948571
0.023351
0.939527
0.0419668
0.933492
0.058877
0.927559
0.0797417
0.923563
0.103546
0.919889
0.129468
0.158887
1.4612e-007
-1.2998e-007
8.06532e-007
-8.12339e-007
4.20894e-006
-3.70298e-006
1.98929e-005
-1.60921e-005
8.81594e-005
-6.18752e-005
0.000355326
-0.000217996
0.00131924
-0.000684356
0.00442756
-0.00181005
0.0131751
-0.00518283
0.0339305
-0.0100207
0.0763424
-0.0175185
0.151659
-0.0252235
0.263537
-0.0339918
0.403432
-0.03309
0.553842
-0.0261134
0.698605
-0.016273
0.829228
-0.012199
0.942796
-0.00700897
1.04009
-0.00693673
1.12228
0.00385159
1.19037
-0.00790915
1.24751
0.0191591
1.29581
-0.00158599
1.32707
0.00864356
1.35694
0.014518
1.386
0.0124878
1.40241
0.0102742
1.4059
0.00930285
1.40691
0.00663859
1.4158
0.0138168
1.42808
0.01687
1.43305
0.00982968
1.42984
0.004121
1.42212
0.00466134
1.4107
-0.00863053
1.40368
-0.00284552
1.40017
-0.00588406
1.40969
-0.00257264
1.42349
-0.00331422
1.43459
-0.0127274
1.44156
-0.0262517
1.44556
-0.0398162
1.4491
-0.053071
1.45178
-0.0643642
1.44361
-0.0713153
1.38722
-0.0762686
1.26741
-0.0707169
1.16239
-0.060853
1.07907
-0.0484773
1.01748
-0.0360366
0.974612
-0.0231372
0.946041
-0.0131773
0.927923
0.00507885
0.915405
0.0250981
0.907354
0.0432811
0.901196
0.0608257
0.895895
0.0818509
0.893894
0.105475
0.892055
0.132577
0.163904
1.40172e-007
-1.31636e-007
7.72846e-007
-8.2186e-007
4.03181e-006
-3.74632e-006
1.90458e-005
-1.62785e-005
8.44088e-005
-6.26351e-005
0.000340268
-0.000220908
0.00126405
-0.000694918
0.00424435
-0.00184116
0.0126535
-0.0052948
0.0326374
-0.01023
0.0735583
-0.0180189
0.146362
-0.0260102
0.254781
-0.0352309
0.390684
-0.0346437
0.537058
-0.0276152
0.678027
-0.0173759
0.80508
-0.0129688
0.915367
-0.00736183
1.00982
-0.00746646
1.08959
0.00334389
1.15593
-0.00921199
1.21137
0.0204855
1.25782
-0.00217508
1.28828
0.0085964
1.31721
0.0149686
1.34533
0.0130549
1.36132
0.0107037
1.36444
0.00975839
1.36489
0.00684792
1.37332
0.013937
1.38532
0.0178214
1.39027
0.0102203
1.38673
0.0046581
1.3786
0.00438803
1.36809
-0.00969475
1.36052
-0.00255029
1.35732
-0.00654122
1.36544
-0.00339786
1.37901
-0.00304794
1.3903
-0.014783
1.39703
-0.0287318
1.40189
-0.0435422
1.40667
-0.058023
1.41046
-0.0703222
1.40354
-0.0780181
1.35455
-0.0828031
1.24051
-0.0764727
1.13833
-0.0651096
1.05817
-0.0517913
0.997791
-0.0367373
0.953689
-0.0221935
0.924954
-0.0132899
0.90756
0.00531014
0.894906
0.0259218
0.886739
0.044017
0.879294
0.061893
0.873294
0.0845226
0.870453
0.108844
0.869647
0.136496
0.170354
1.34486e-007
-1.33016e-007
7.40639e-007
-8.29627e-007
3.86201e-006
-3.78162e-006
1.82293e-005
-1.64283e-005
8.07609e-005
-6.32453e-005
0.000325421
-0.000223233
0.00120867
-0.000703298
0.00405761
-0.00186603
0.0121023
-0.00538156
0.0312199
-0.0103787
0.0703823
-0.0183774
0.140095
-0.0265152
0.243994
-0.0360131
0.374334
-0.0355856
0.514874
-0.0284622
0.650437
-0.0178891
0.772943
-0.0133238
0.879565
-0.00754528
0.970988
-0.00785555
1.04827
0.00367984
1.11245
-0.0100231
1.16619
0.0219453
1.21177
-0.00328345
1.24136
0.00855463
1.2697
0.0157714
1.29713
0.01355
1.31256
0.0107531
1.31602
0.00958824
1.31739
0.00639682
1.32599
0.0143369
1.33756
0.0187449
1.34227
0.0105291
1.33923
0.00429796
1.33186
0.00515979
1.32134
-0.0107509
1.3146
-0.00332335
1.31152
-0.00839452
1.321
-0.00390024
1.33429
-0.00350494
1.34468
-0.0168519
1.35131
-0.0315761
1.35517
-0.0465198
1.35858
-0.0617255
1.36141
-0.0752971
1.35545
-0.0847185
1.31205
-0.0907934
1.2049
-0.0848192
1.10461
-0.0695742
1.0232
-0.0531114
0.962537
-0.0367149
0.920499
-0.0232836
0.893804
-0.0121914
0.87554
0.00431009
0.864082
0.02542
0.856799
0.0434744
0.849564
0.0631801
0.844959
0.0860199
0.843631
0.111349
0.843375
0.140546
0.175288
1.29062e-007
-1.34153e-007
7.1003e-007
-8.35876e-007
3.70125e-006
-3.81035e-006
1.74612e-005
-1.65506e-005
7.73573e-005
-6.37604e-005
0.000311733
-0.000225273
0.00115834
-0.000710987
0.00389034
-0.00189023
0.011622
-0.00546834
0.0300218
-0.0105475
0.0677865
-0.0187959
0.135128
-0.0271737
0.235734
-0.0370965
0.36225
-0.0369823
0.498922
-0.0298401
0.630868
-0.0189139
0.749997
-0.0140451
0.853521
-0.00784702
0.942252
-0.00828243
1.01724
0.00393992
1.0797
-0.0111812
1.13187
0.0231963
1.17564
-0.00402206
1.20448
0.00840761
1.23203
0.0161963
1.25859
0.0140654
1.27356
0.0111271
1.27666
0.00995209
1.27758
0.00653151
1.2859
0.0144667
1.29721
0.0194856
1.30175
0.0106914
1.29848
0.00486207
1.29075
0.00527812
1.28098
-0.0119173
1.27378
-0.00345687
1.27126
-0.00978925
1.27914
-0.00497244
1.29165
-0.00256138
1.30186
-0.0187172
1.30791
-0.0336739
1.31211
-0.04962
1.31607
-0.065893
1.31917
-0.0800002
1.31468
-0.0902701
1.27828
-0.0977262
1.17926
-0.0958819
1.08063
-0.0757091
0.999488
-0.0555701
0.938413
-0.0376314
0.895635
-0.0246612
0.870065
-0.0128115
0.852035
0.00264881
0.841384
0.023893
0.833754
0.0438297
0.827312
0.0648778
0.8224
0.0884229
0.819914
0.1143
0.821361
0.144701
0.179427
1.2388e-007
-1.35068e-007
6.80803e-007
-8.40715e-007
3.54754e-006
-3.8327e-006
1.67246e-005
-1.66442e-005
7.40737e-005
-6.41601e-005
0.000298403
-0.000226867
0.00110869
-0.000717027
0.00372325
-0.00190976
0.0111286
-0.00553489
0.0287534
-0.0106729
0.0649421
-0.0191076
0.129506
-0.0276178
0.226037
-0.0378295
0.347504
-0.037895
0.478834
-0.0306863
0.60578
-0.0194678
0.720661
-0.0144282
0.820747
-0.00804854
0.906634
-0.00858489
0.979277
0.00414498
1.03975
-0.0120402
1.09029
0.0245567
1.13318
-0.00513567
1.16123
0.00833756
1.18822
0.0169314
1.21402
0.0144224
1.22839
0.0109889
1.23178
0.00956677
1.23356
0.00588605
1.24196
0.0146645
1.2528
0.0203167
1.25722
0.0107489
1.25439
0.004357
1.24737
0.00582539
1.23759
-0.0131822
1.2308
-0.00403471
1.22785
-0.0111775
1.23615
-0.00652765
1.2482
-0.00270614
1.258
-0.0201349
1.2645
-0.0356618
1.26824
-0.0518023
1.27096
-0.0686614
1.27399
-0.0838662
1.27265
-0.0951042
1.2479
-0.104067
1.16284
-0.10891
1.05839
-0.0841352
0.973624
-0.0591338
0.909626
-0.038859
0.86583
-0.0265691
0.838869
-0.0129165
0.820934
0.00149429
0.809978
0.0229683
0.803055
0.0437852
0.798781
0.0659021
0.795829
0.0899738
0.79485
0.116178
0.798103
0.147427
0.184224
1.18933e-007
-1.35784e-007
6.52978e-007
-8.44317e-007
3.40158e-006
-3.84967e-006
1.6028e-005
-1.6715e-005
7.09856e-005
-6.44789e-005
0.00028597
-0.000228204
0.00106286
-0.000722378
0.00357077
-0.0019283
0.0106876
-0.00559871
0.027647
-0.0108105
0.0625303
-0.0194576
0.124866
-0.0281671
0.218274
-0.0387784
0.336086
-0.0391484
0.463712
-0.0319496
0.587205
-0.0204238
0.698888
-0.0151086
0.796045
-0.00833089
0.879388
-0.00900042
0.949814
0.00511633
1.00865
-0.0131346
1.05778
0.0257051
1.09873
-0.00566624
1.12617
0.00827023
1.15273
0.0173854
1.17759
0.0148518
1.19118
0.0112161
1.19417
0.00973181
1.19581
0.0058538
1.20417
0.0147837
1.2148
0.020952
1.21903
0.010866
1.21607
0.00483999
1.20888
0.00629131
1.19965
-0.014324
1.19202
-0.00424448
1.18867
-0.0119628
1.1941
-0.00810157
1.20507
-0.000319282
1.21625
-0.0208554
1.22367
-0.0366781
1.22846
-0.0536255
1.23188
-0.0712966
1.23516
-0.0872785
1.23644
-0.0990987
1.2221
-0.106852
1.15959
-0.114506
1.05144
-0.0939764
0.963857
-0.0671029
0.897544
-0.0443248
0.84957
-0.0290616
0.818068
-0.01343
0.797982
0.000867344
0.785892
0.0221714
0.778414
0.0439717
0.773645
0.0672547
0.77162
0.0916167
0.771333
0.118069
0.773401
0.149255
0.187585
1.14207e-007
-1.36321e-007
6.26419e-007
-8.46787e-007
3.26219e-006
-3.86159e-006
1.53618e-005
-1.67633e-005
6.80208e-005
-6.47082e-005
0.000273957
-0.000229198
0.00101816
-0.000726474
0.00342057
-0.00194336
0.0102438
-0.00564711
0.0265064
-0.0109164
0.0599708
-0.0197275
0.119803
-0.0285583
0.209522
-0.0394607
0.322748
-0.0400236
0.445484
-0.0327902
0.564358
-0.0210043
0.67208
-0.0155186
0.766012
-0.0085385
0.846726
-0.00926014
0.914821
0.00509185
0.972217
-0.0135179
1.01925
0.026242
1.05864
-0.00579948
1.08819
0.00810503
1.11193
0.0179485
1.13392
0.0150138
1.14904
0.0110667
1.15476
0.00943325
1.1567
0.00542499
1.16233
0.0145445
1.17107
0.0213397
1.17639
0.0107542
1.17514
0.00429147
1.1698
0.00612619
1.1616
-0.0139251
1.1538
-0.0056409
1.14865
-0.0122107
1.15001
-0.0102327
1.15758
-0.00236685
1.16933
-0.0191723
1.17872
-0.0372055
1.18369
-0.0541857
1.18603
-0.0720584
1.18797
-0.0887474
1.18934
-0.101858
1.18037
-0.109364
1.13158
-0.116376
1.03343
-0.0997826
0.94768
-0.0742027
0.8796
-0.0500772
0.82847
-0.0318457
0.792822
-0.0150522
0.772416
0.0011986
0.758675
0.0217966
0.750371
0.0439042
0.745832
0.0675247
0.744893
0.0922668
0.745891
0.118961
0.747366
0.149083
0.188663
1.09693e-007
-1.36698e-007
6.01105e-007
-8.48257e-007
3.12955e-006
-3.86914e-006
1.47296e-005
-1.67928e-005
6.52179e-005
-6.48701e-005
0.000262663
-0.000229971
0.000976454
-0.000729934
0.00328163
-0.00195738
0.00983936
-0.00569216
0.0254868
-0.0110278
0.0577358
-0.0200194
0.115479
-0.0290196
0.202247
-0.0402908