/*--------------------------------*- C++ -*----------------------------------*\
| =========                 |                                                 |
| \\      /  F ield         | OpenFOAM: The Open Source CFD Toolbox           |
|  \\    /   O peration     | Version:  5.x                                   |
|   \\  /    A nd           | Web:      www.OpenFOAM.org                      |
|    \\/     M anipulation  |                                                 |
\*---------------------------------------------------------------------------*/
/*   Windows 32 and 64 bit porting by blueCAPE: http://www.bluecape.com.pt   *\
|  Based on Windows porting (2.0.x v4) by Symscape: http://www.symscape.com   |
\*---------------------------------------------------------------------------*/
FoamFile
{
    version     2.0;
    format      ascii;
    class       volScalarField;
    location    "0.006";
    object      T;
}
// * * * * * * * * * * * * * * * * * * * * * * * * * * * * * * * * * * * * * //

dimensions      [0 0 0 1 0 0 0];

internalField   nonuniform List<scalar> 
10000
(
348.432
348.432
348.432
348.432
348.431
348.426
348.408
348.346
348.155
347.662
346.559
344.433
340.919
335.99
330.015
323.517
316.977
310.548
304.476
298.19
293.685
286.352
283.016
279.076
272.834
268.136
266.241
264.835
261.763
257.189
253.928
252.987
253.174
254.399
255.376
255.256
253.355
250.208
248.246
247.322
247.033
247.022
247.259
248.574
254.076
270.685
295.353
321.089
346.44
369.771
389.37
407.016
419.596
428.478
434.496
437.367
438.724
438.501
437.398
428.945
348.432
348.432
348.432
348.432
348.431
348.426
348.409
348.349
348.163
347.684
346.609
344.528
341.075
336.208
330.28
323.806
317.27
310.833
304.723
298.467
293.792
286.513
283.311
278.922
272.521
268.22
266.516
264.651
260.844
256.184
253.219
252.525
252.816
254.048
254.595
253.898
251.046
248.657
247.466
247.044
246.982
247.068
247.525
249.256
255.636
273.97
300.21
327.17
352.617
374.623
391.418
402.725
410.668
414.638
415.784
415.389
413.677
409.063
407.168
402.55
348.432
348.432
348.432
348.432
348.431
348.426
348.409
348.349
348.164
347.686
346.613
344.536
341.088
336.227
330.31
323.85
317.333
310.924
304.813
298.774
293.466
287.835
282.554
279.01
274.268
268.918
265.673
264.212
262.297
258.667
254.819
252.913
252.74
253.281
254.547
255.069
254.857
253.407
251.398
250.214
249.708
249.585
249.632
250.297
254.166
268.273
292.851
317.865
341.499
361.923
379.35
393.037
401.99
408.593
412.551
413.863
414.028
412.836
411.254
405.756
348.432
348.432
348.432
348.432
348.431
348.426
348.41
348.351
348.171
347.704
346.655
344.618
341.223
336.419
330.546
324.111
317.599
311.189
305.019
299.164
293.094
288.986
281.954
278.266
275.277
269.881
264.696
262.193
261.25
259.763
256.214
252.697
251.363
251.35
251.912
252.982
253.472
253.464
252.722
251.415
250.726
250.499
250.523
251.366
256.529
274.51
301.52
327.119
349.669
367.746
382.104
392.872
399.68
404.81
407.814
408.897
409.172
408.346
407.112
402.836
348.432
348.432
348.432
348.432
348.431
348.426
348.41
348.352
348.173
347.707
346.662
344.63
341.243
336.446
330.583
324.16
317.665
311.275
305.134
299.306
293.294
289.177
282.249
278.602
275.608
270.3
265.208
262.725
261.804
260.368
256.951
253.498
252.172
252.154
252.674
253.816
254.321
254.319
253.619
252.218
251.426
251.14
251.147
251.938
256.961
274.616
301.312
326.574
348.627
366.589
380.074
390.924
397.774
402.847
406.552
408.238
408.777
408.461
407.812
404.26
348.432
348.432
348.432
348.432
348.431
348.427
348.41
348.354
348.178
347.723
346.698
344.701
341.36
336.616
330.795
324.397
317.909
311.515
305.363
299.476
293.554
289.178
282.323
278.949
275.483
269.786
265.044
263.044
261.996
259.807
255.706
252.535
251.552
251.697
252.616
253.586
253.779
253.334
251.913
250.746
250.191
250.01
250.046
250.88
255.892
273.584
300.871
326.966
349.939
368.189
381.706
391.656
397.952
402.358
405.318
406.574
406.944
406.611
405.942
402.827
348.432
348.432
348.432
348.432
348.431
348.427
348.411
348.354
348.18
347.727
346.706
344.717
341.386
336.649
330.837
324.448
317.976
311.598
305.469
299.623
293.697
289.416
282.592
279.131
275.839
270.312
265.492
263.356
262.364
260.421
256.551
253.317
252.243
252.325
253.11
254.216
254.489
254.152
252.7
251.218
250.469
250.216
250.218
250.79
254.597
269.371
295.704
321.464
344.626
363.472
378.037
388.943
396.374
401.412
405.028
406.817
407.415
407.249
406.792
403.688
348.432
348.432
348.432
348.432
348.431
348.427
348.411
348.356
348.185
347.74
346.737
344.778
341.488
336.8
331.027
324.665
318.199
311.821
305.681
299.799
293.904
289.482
282.673
279.354
275.767
270.009
265.393
263.496
262.371
259.944
255.768
252.654
251.717
251.898
252.888
253.869
253.968
253.235
251.463
250.167
249.541
249.348
249.374
250.023
254.034
269.363
296.113
322.309
345.692
364.813
379.414
390.079
397.154
401.934
405.17
406.542
406.983
406.716
406.154
403.081
348.432
348.432
348.432
348.432
348.431
348.427
348.411
348.357
348.187
347.745
346.747
344.796
341.517
336.837
331.072
324.718
318.266
311.9
305.781
299.931
294.042
289.688
282.916
279.531
276.081
270.455
265.786
263.802
262.721
260.478
256.457
253.292
252.285
252.412
253.311
254.427
254.628
253.989
252.039
250.378
249.536
249.246
249.239
249.748
253.184
266.893
292.846
318.853
342.171
361.458
376.569
387.743
395.69
400.914
404.754
406.669
407.358
407.246
406.849
403.784
348.432
348.432
348.432
348.432
348.431
348.427
348.411
348.358
348.191
347.757
346.773
344.849
341.607
336.97
331.244
324.916
318.472
312.109
305.979
300.109
294.21
289.808
282.98
279.682
276.085
270.308
265.685
263.784
262.645
260.189
255.973
252.799
251.814
251.989
252.99
254.055
254.154
253.304
251.251
249.724
248.977
248.738
248.751
249.321
252.936
267.134
293.538
319.787
343.403
362.85
377.971
388.986
396.538
401.414
404.907
406.543
407.179
407.035
406.578
403.555
348.432
348.432
348.432
348.432
348.431
348.427
348.412
348.359
348.193
347.762
346.784
344.869
341.639
337.011
331.292
324.969
318.536
312.183
306.07
300.234
294.318
290.028
283.181
279.797
276.399
270.762
266.008
263.967
262.897
260.708
256.649
253.369
252.271
252.377
253.26
254.438
254.641
253.906
251.789
250.008
249.101
248.785
248.773
249.257
252.566
265.948
291.861
317.746
341.012
360.294
375.558
386.841
395.022
400.348
404.276
406.369
407.325
407.31
407.026
404.144
348.432
348.432
348.432
348.432
348.431
348.427
348.412
348.36
348.197
347.772
346.807
344.916
341.718
337.13
331.447
325.15
318.727
312.378
306.257
300.406
294.478
290.15
283.255
279.928
276.43
270.669
265.925
263.928
262.831
260.516
256.289
252.969
251.865
252
252.946
254.102
254.254
253.435
251.237
249.473
248.579
248.267
248.257
248.761
252.144
265.776
292.141
318.223
341.604
360.862
375.902
386.975
394.875
399.962
403.718
405.964
407.022
407.058
406.847
404.173
348.432
348.432
348.432
348.432
348.431
348.427
348.412
348.361
348.199
347.777
346.819
344.937
341.751
337.172
331.496
325.203
318.789
312.448
306.34
300.522
294.568
290.362
283.441
279.989
276.717
271.119
266.213
264.033
263.002
260.994
256.956
253.492
252.232
252.296
253.089
254.361
254.629
253.984
251.802
249.728
248.625
248.205
248.156
248.507
251.136
262.501
287.715
314.038
337.728
357.503
373.071
384.556
392.939
398.418
402.373
405.109
406.56
406.81
406.805
404.576
348.432
348.432
348.432
348.432
348.431
348.427
348.412
348.362
348.202
347.786
346.839
344.978
341.821
337.278
331.635
325.369
318.966
312.631
306.517
300.684
294.728
290.468
283.524
280.141
276.752
271.029
266.15
264.033
262.979
260.843
256.643
253.152
251.894
251.977
252.835
254.097
254.323
253.637
251.396
249.341
248.262
247.859
247.812
248.143
250.579
261.148
285.799
312.463
336.697
357.027
372.954
384.534
392.831
398.305
402.253
404.903
406.303
406.573
406.647
404.645
348.432
348.432
348.432
348.432
348.431
348.427
348.413
348.362
348.204
347.791
346.85
344.999
341.855
337.322
331.686
325.422
319.026
312.695
306.593
300.785
294.816
290.651
283.692
280.207
276.992
271.411
266.42
264.158
263.138
261.217
257.192
253.598
252.221
252.252
252.975
254.299
254.602
253.997
251.778
249.538
248.327
247.852
247.775
248.006
249.884
258.517
281.312
308.01
332.727
353.82
370.536
382.87
391.798
397.807
401.931
404.715
406.272
406.618
406.76
404.859
348.432
348.432
348.432
348.432
348.431
348.427
348.413
348.363
348.207
347.799
346.868
345.035
341.917
337.416
331.812
325.574
319.19
312.868
306.762
300.939
294.979
290.741
283.78
280.386
277.024
271.302
266.38
264.223
263.173
261.072
256.874
253.296
251.957
252.008
252.823
254.131
254.375
253.682
251.356
249.176
248.02
247.577
247.512
247.735
249.457
257.327
279.18
306.16
331.474
353.285
370.444
382.936
391.945
398.009
402.164
404.954
406.436
406.746
406.861
404.915
348.432
348.432
348.432
348.432
348.431
348.427
348.413
348.364
348.209
347.804
346.879
345.056
341.951
337.46
331.863
325.626
319.247
312.927
306.833
301.025
295.064
290.9
283.929
280.458
277.23
271.619
266.623
264.368
263.333
261.369
257.296
253.663
252.25
252.276
252.981
254.305
254.594
253.913
251.53
249.243
248.012
247.519
247.43
247.588
248.924
255.41
275.264
302.294
327.991
350.491
368.422
381.667
391.222
397.68
401.947
404.856
406.479
406.882
407.026
405.09
348.432
348.432
348.432
348.432
348.431
348.427
348.413
348.365
348.212
347.811
346.895
345.089
342.007
337.545
331.977
325.765
319.399
313.09
306.992
301.176
295.221
290.984
284.022
280.639
277.266
271.524
266.603
264.451
263.388
261.253
257.031
253.417
252.039
252.072
252.866
254.194
254.43
253.676
251.202
248.934
247.733
247.264
247.183
247.337
248.597
254.676
273.796
300.931
326.994
349.924
368.201
381.58
391.227
397.743
402.042
404.965
406.562
406.971
407.094
405.132
348.432
348.432
348.432
348.432
348.431
348.427
348.414
348.365
348.214
347.816
346.906
345.109
342.04
337.589
332.027
325.817
319.454
313.143
307.057
301.252
295.302
291.126
284.151
280.708
277.447
271.797
266.817
264.588
263.535
261.505
257.375
253.719
252.289
252.309
253.01
254.334
254.608
253.852
251.292
248.957
247.715
247.221
247.13
247.261
248.374
253.843
271.789
298.807
325.018
348.119
366.666
380.452
390.379
397.137
401.532
404.636
406.447
406.951
407.147
405.28
348.432
348.432
348.432
348.432
348.431
348.427
348.414
348.366
348.216
347.822
346.92
345.138
342.09
337.666
332.131
325.945
319.596
313.298
307.208
301.394
295.454
291.202
284.251
280.897
277.483
271.71
266.82
264.699
263.614
261.406
257.144
253.517
252.132
252.154
252.947
254.275
254.491
253.642
251.018
248.736
247.544
247.086
247.009
247.144
248.22
253.417
270.731
297.833
324.506
348.148
366.948
380.745
390.514
397.14
401.399
404.44
406.269
406.814
407.051
405.32
348.432
348.432
348.432
348.432
348.431
348.427
348.414
348.367
348.218
347.826
346.93
345.158
342.122
337.709
332.18
325.994
319.647
313.346
307.267
301.464
295.532
291.325
284.362
280.967
277.639
271.939
267.007
264.835
263.752
261.613
257.417
253.765
252.348
252.367
253.08
254.398
254.646
253.825
251.13
248.821
247.585
247.07
246.955
247.043
247.888
252.216
267.662
294.59
321.607
345.902
365.461
379.928
390.204
397.004
401.259
404.288
406.171
406.761
407.025
405.47
348.432
348.432
348.432
348.432
348.431
348.428
348.414
348.367
348.22
347.832
346.943
345.184
342.168
337.778
332.275
326.112
319.779
313.492
307.411
301.596
295.684
291.387
284.474
281.17
277.664
271.856
267.038
264.973
263.852
261.538
257.24
253.607
252.223
252.235
253.015
254.374
254.615
253.828
251.214
248.821
247.444
246.79
246.584
246.596
247.073
250.051
262.24
288.932
317.185
342.957
363.878
379.295
390.133
397.301
401.639
404.574
406.341
406.87
407.102
405.646
348.432
348.432
348.432
348.432
348.431
348.428
348.414
348.368
348.222
347.837
346.953
345.204
342.199
337.82
332.323
326.161
319.828
313.536
307.466
301.649
295.781
291.45
284.592
281.308
277.753
271.989
267.232
265.19
264.038
261.695
257.446
253.794
252.376
252.386
253.06
254.492
254.876
254.408
252.1
249.311
247.492
246.511
246.133
246.079
246.299
247.973
255.764
278.542
307.966
335.358
358.289
375.7
388.099
396.459
401.497
404.761
406.613
407.148
407.34
405.895
348.432
348.432
348.432
348.432
348.431
348.428
348.414
348.369
348.224
347.841
346.965
345.227
342.24
337.883
332.409
326.269
319.951
313.673
307.611
301.728
296.136
290.941
285.643
280.963
277.274
272.606
267.845
264.994
263.476
261.47
257.907
254.242
252.411
252.234
252.612
253.961
254.67
254.7
253.856
251.042
248.567
247.207
246.701
246.628
246.788
248.031
253.985
272.843
300.607
328.044
352.265
371.412
385.28
394.864
400.958
404.77
406.884
407.508
407.729
406.229
348.432
348.432
348.432
348.432
348.431
348.428
348.415
348.369
348.225
347.846
346.974
345.246
342.27
337.923
332.456
326.315
319.997
313.712
307.671
301.708
296.499
290.224
286.967
280.415
276.314
273.665
269.278
264.625
261.895
260.622
259.123
256.336
253.465
252.156
251.988
252.348
253.346
254.053
254.131
253.421
251.32
249.83
249.224
249.108
249.209
250.158
255.139
272.084
298.175
323.896
347.301
366.834
381.62
392.225
399.415
404.046
406.711
407.614
407.987
406.464
348.432
348.432
348.432
348.432
348.431
348.428
348.415
348.37
348.227
347.85
346.985
345.267
342.307
337.981
332.535
326.416
320.112
313.842
307.801
301.828
296.665
290.211
287.11
280.756
275.946
273.677
269.805
264.769
261.413
260.106
259.136
257.005
253.931
252.1
251.696
251.879
252.583
253.452
253.708
253.394
252.088
251.035
250.653
250.601
250.722
251.735
256.902
273.962
299.252
323.828
346.077
364.991
379.877
390.565
398.073
403.14
406.311
407.492
408.067
406.644
348.432
348.432
348.432
348.432
348.431
348.428
348.415
348.37
348.229
347.854
346.994
345.285
342.336
338.019
332.58
326.46
320.155
313.878
307.846
301.867
296.742
290.263
287.181
280.894
275.932
273.727
270.11
264.999
261.332
259.941
259.143
257.395
254.403
252.292
251.712
251.832
252.392
253.163
253.384
253.232
252.451
251.722
251.42
251.356
251.444
252.417
257.737
275.281
300.518
324.549
345.931
363.929
378.496
389.232
396.759
401.967
405.643
407.176
407.992
406.709
348.432
348.432
348.432
348.432
348.431
348.428
348.415
348.371
348.23
347.859
347.003
345.305
342.37
338.072
332.652
326.553
320.262
314.001
307.968
301.992
296.863
290.344
287.281
281.071
275.94
273.724
270.251
265.125
261.318
259.843
259.081
257.428
254.412
252.279
251.695
251.811
252.284
252.986
253.223
253.109
252.498
251.906
251.652
251.591
251.667
252.641
258.101
275.975
301.305
325.423
346.62
364.035
377.879
388.537
395.963
400.999
404.857
406.723
407.75
406.751
348.432
348.432
348.432
348.432
348.431
348.428
348.415
348.371
348.232
347.862
347.012
345.321
342.397
338.109
332.695
326.595
320.303
314.035
308.008
302.031
296.916
290.416
287.347
281.12
276.016
273.814
270.39
265.26
261.342
259.81
259.113
257.656
254.707
252.385
251.663
251.741
252.165
252.886
253.14
253.104
252.667
252.089
251.806
251.717
251.776
252.746
258.277
276.224
301.368
325.405
346.427
363.715
377.064
387.518
395.126
400.049
403.873
406.013
407.311
406.667
348.432
348.432
348.432
348.432
348.431
348.428
348.415
348.372
348.233
347.866
347.021
345.339
342.429
338.158
332.762
326.681
320.403
314.151
308.122
302.154
297.017
290.523
287.446
281.218
276.112
273.892
270.426
265.292
261.408
259.876
259.164
257.666
254.627
252.307
251.615
251.702
252.115
252.852
253.137
253.105
252.715
252.177
251.873
251.753
251.828
252.798
258.326
276.307
301.482
325.558
346.544
363.66
376.723
386.685
394.458
399.368
403.131
405.351
406.894
406.554
348.432
348.432
348.432
348.432
348.431
348.428
348.415
348.372
348.234
347.87
347.029
345.355
342.454
338.192
332.803
326.721
320.441
314.181
308.158
302.19
297.06
290.595
287.505
281.23
276.211
274.005
270.489
265.339
261.459
259.949
259.255
257.785
254.748
252.339
251.59
251.67
252.101
252.862
253.147
253.145
252.823
252.244
251.888
251.756
251.833
252.788
258.293
276.313
301.607
325.728
346.783
363.792
376.777
386.202
393.933
398.87
402.57
404.786
406.48
406.392
348.432
348.432
348.432
348.432
348.431
348.428
348.415
348.373
348.236
347.873
347.037
345.372
342.483
338.237
332.865
326.802
320.536
314.29
308.267
302.306
297.158
290.699
287.604
281.328
276.307
274.085
270.533
265.378
261.535
260.033
259.321
257.803
254.666
252.269
251.559
251.65
252.088
252.878
253.187
253.179
252.837
252.178
251.763
251.625
251.701
252.656
258.186
276.274
301.628
325.806
346.988
364.044
377.024
386.231
393.72
398.712
402.339
404.533
406.246
406.327
348.432
348.432
348.432
348.432
348.431
348.428
348.416
348.373
348.237
347.877
347.044
345.386
342.507
338.27
332.903
326.839
320.571
314.318
308.299
302.34
297.188
290.774
287.651
281.309
276.423
274.202
270.548
265.375
261.589
260.141
259.429
257.877
254.71
252.258
251.517
251.612
252.093
252.919
253.213
253.201
252.82
252.131
251.721
251.573
251.646
252.567
257.93
275.7
300.974
325.198
346.496
363.763
376.861
386.154
393.481
398.571
402.217
404.433
406.152
406.34
348.432
348.432
348.432
348.432
348.431
348.428
348.416
348.373
348.238
347.88
347.052
345.402
342.534
338.312
332.962
326.914
320.659
314.421
308.402
302.452
297.281
290.884
287.748
281.386
276.549
274.301
270.559
265.384
261.704
260.31
259.549
257.847
254.557
252.185
251.534
251.657
252.201
253.013
253.268
253.201
252.698
252.061
251.714
251.583
251.647
252.508
257.587
274.844
299.94
324.04
345.379
362.846
376.111
385.697
393.03
398.274
402.031
404.345
406.11
406.364
348.432
348.432
348.432
348.432
348.431
348.428
348.416
348.374
348.239
347.883
347.059
345.415
342.556
338.342
332.997
326.949
320.692
314.446
308.431
302.481
297.306
290.95
287.783
281.364
276.657
274.401
270.55
265.362
261.764
260.434
259.649
257.84
254.527
252.167
251.531
251.675
252.285
253.062
253.246
253.133
252.56
251.988
251.714
251.61
251.65
252.458
257.34
274.353
299.529
323.513
344.574
361.863
375.076
384.784
392.24
397.625
401.641
404.137
406.019
406.34
348.432
348.432
348.432
348.432
348.431
348.428
348.416
348.374
348.241
347.886
347.066
345.429
342.582
338.382
333.052
327.019
320.775
314.544
308.529
302.588
297.397
291.056
287.878
281.444
276.783
274.501
270.563
265.378
261.897
260.628
259.772
257.763
254.362
252.133
251.605
251.792
252.47
253.158
253.267
253.02
252.347
251.87
251.659
251.591
251.62
252.357
257.016
273.718
299.145
323.284
344.321
361.426
374.433
384.007
391.404
396.881
401.069
403.784
405.83
406.258
348.432
348.432
348.432
348.432
348.431
348.428
348.416
348.374
348.242
347.889
347.072
345.442
342.602
338.409
333.084
327.052
320.805
314.566
308.554
302.612
297.419
291.109
287.904
281.431
276.867
274.577
270.551
265.359
261.95
260.732
259.836
257.709
254.32
252.127
251.62
251.832
252.547
253.18
253.232
252.898
252.174
251.681
251.447
251.372
251.397
252.061
256.508
272.93
298.649
323.04
344.202
361.282
374.175
383.523
390.672
396.08
400.277
403.099
405.367
406.015
348.432
348.432
348.432
348.432
348.431
348.428
348.416
348.375
348.243
347.892
347.079
345.455
342.626
338.447
333.136
327.118
320.883
314.659
308.648
302.714
297.51
291.209
287.998
281.518
276.984
274.672
270.584
265.399
262.078
260.896
259.937
257.665
254.234
252.127
251.684
251.924
252.669
253.279
253.312
252.88
252.005
251.395
251.092
250.995
251.021
251.656
255.939
272.053
297.988
322.66
344.058
361.248
374.142
383.343
390.283
395.522
399.64
402.506
404.885
405.702
348.432
348.432
348.432
348.432
348.431
348.428
348.416
348.375
348.244
347.894
347.085
345.467
342.645
338.472
333.165
327.147
320.91
314.678
308.67
302.734
297.528
291.255
288.016
281.505
277.054
274.727
270.57
265.387
262.114
260.957
259.977
257.654
254.228
252.103
251.646
251.888
252.666
253.323
253.363
252.922
251.941
251.252
250.923
250.827
250.857
251.461
255.5
271.039
296.953
321.804
343.494
360.98
374.092
383.292
390.121
395.18
399.124
401.916
404.309
405.274
348.432
348.432
348.432
348.432
348.431
348.428
348.416
348.375
348.245
347.897
347.091
345.48
342.668
338.508
333.214
327.21
320.985
314.766
308.76
302.83
297.62
291.346
288.111
281.607
277.147
274.811
270.646
265.465
262.209
261.052
260.059
257.712
254.237
252.109
251.664
251.91
252.703
253.395
253.45
252.999
251.961
251.236
250.897
250.801
250.831
251.409
255.245
270.239
296.033
320.932
342.779
360.48
373.822
383.133
390.006
394.981
398.85
401.523
403.857
404.923
348.432
348.432
348.432
348.432
348.431
348.428
348.416
348.376
348.246
347.899
347.096
345.49
342.684
338.531
333.242
327.237
321.009
314.784
308.778
302.847
297.634
291.382
288.123
281.596
277.196
274.847
270.638
265.456
262.218
261.072
260.079
257.72
254.242
252.084
251.62
251.866
252.677
253.394
253.452
253.011
251.972
251.241
250.904
250.812
250.844
251.406
255.087
269.634
295.351
320.312
342.274
360.124
373.641
383.007
389.936
394.894
398.685
401.268
403.517
404.578
348.432
348.432
348.432
348.432
348.431
348.428
348.416
348.376
348.247
347.902
347.102
345.502
342.706
338.564
333.288
327.297
321.08
314.867
308.865
302.94
297.721
291.479
288.212
281.689
277.305
274.938
270.705
265.53
262.323
261.184
260.168
257.766
254.25
252.104
251.656
251.912
252.735
253.453
253.505
253.031
251.992
251.289
250.972
250.889
250.921
251.457
254.98
269.048
294.622
319.682
341.828
359.861
373.521
382.931
389.893
394.851
398.59
401.106
403.285
404.326
348.432
348.432
348.432
348.432
348.431
348.428
348.417
348.376
348.247
347.904
347.107
345.511
342.722
338.585
333.313
327.321
321.101
314.882
308.88
302.955
297.728
291.514
288.213
281.665
277.364
274.969
270.662
265.496
262.35
261.236
260.187
257.709
254.201
252.07
251.632
251.901
252.755
253.459
253.488
252.954
251.944
251.288
250.996
250.92
250.951
251.48
254.972
268.929
294.375
319.366
341.566
359.756
373.563
383.024
389.98
394.911
398.609
401.051
403.145
404.124
348.432
348.432
348.432
348.432
348.431
348.428
348.417
348.377
348.248
347.906
347.113
345.523
342.743
338.618
333.357
327.378
321.169
314.961
308.963
303.045
297.81
291.617
288.296
281.746
277.501
275.07
270.698
265.555
262.497
261.408
260.292
257.693
254.169
252.103
251.704
252.002
252.884
253.541
253.529
252.894
251.909
251.282
250.999
250.92
250.948
251.469
254.971
268.977
294.402
319.334
341.485
359.697
373.586
383.133
390.111
395.019
398.675
401.074
403.093
403.997
348.432
348.432
348.432
348.432
348.431
348.428
348.417
348.377
348.249
347.908
347.117
345.532
342.756
338.636
333.379
327.399
321.188
314.974
308.975
303.057
297.813
291.646
288.287
281.718
277.557
275.09
270.627
265.509
262.542
261.482
260.294
257.566
254.07
252.069
251.704
252.034
252.949
253.556
253.498
252.761
251.782
251.16
250.864
250.771
250.789
251.303
254.877
269.146
294.689
319.604
341.674
359.807
373.665
383.241
390.253
395.161
398.779
401.128
403.105
403.933
348.432
348.432
348.432
348.432
348.431
348.428
348.417
348.377
348.25
347.911
347.123
345.543
342.776
338.667
333.421
327.453
321.252
315.05
309.055
303.142
297.898
291.737
288.379
281.812
277.671
275.189
270.689
265.587
262.686
261.64
260.387
257.563
254.073
252.127
251.793
252.144
253.07
253.657
253.577
252.762
251.694
250.98
250.609
250.471
250.472
250.981
254.665
269.314
295.058
320.029
342.068
360.097
373.824
383.319
390.298
395.235
398.882
401.206
403.137
403.917
348.432
348.432
348.432
348.432
348.431
348.428
348.417
348.377
348.251
347.912
347.126
345.55
342.789
338.684
333.441
327.472
321.269
315.06
309.064
303.149
297.902
291.746
288.374
281.792
277.686
275.189
270.647
265.554
262.686
261.648
260.362
257.488
254.014
252.086
251.762
252.12
253.078
253.699
253.635
252.809
251.592
250.747
250.309
250.149
250.147
250.689
254.518
269.554
295.385
320.304
342.292
360.309
374.006
383.487
390.399
395.299
398.978
401.322
403.202
403.931
348.432
348.432
348.432
348.432
348.431
348.428
348.417
348.378
348.251
347.915
347.132
345.561
342.808
338.714
333.482
327.524
321.33
315.132
309.142
303.23
297.992
291.828
288.475
281.904
277.772
275.285
270.766
265.67
262.789
261.743
260.461
257.6
254.106
252.157
251.827
252.177
253.149
253.827
253.79
252.953
251.603
250.685
250.228
250.064
250.062
250.622
254.518
269.764
295.652
320.493
342.39
360.343
373.971
383.462
390.34
395.245
398.972
401.337
403.228
403.964
348.432
348.432
348.432
348.432
348.431
348.428
348.417
348.378
348.252
347.916
347.135
345.568
342.819
338.728
333.499
327.541
321.346
315.142
309.152
303.238
297.997
291.845
288.465
281.891
277.795
275.295
270.754
265.657
262.774
261.736
260.481
257.639
254.129
252.146
251.803
252.146
253.131
253.835
253.807
252.978
251.613
250.685
250.228
250.059
250.056
250.62
254.521
269.842
295.92
320.763
342.498
360.293
373.838
383.33
390.197
395.12
398.908
401.294
403.191
403.953
348.432
348.432
348.432
348.432
348.431
348.428
348.417
348.378
348.253
347.918
347.141
345.579
342.839
338.761
333.545
327.6
321.417
315.226
309.243
303.34
298.091
291.973
288.577
282.018
277.922
275.431
270.913
265.795
262.868
261.824
260.617
257.841
254.273
252.202
251.819
252.134
253.086
253.829
253.834
253.083
251.721
250.767
250.282
250.089
250.085
250.632
254.427
269.545
295.898
320.97
342.719
360.283
373.549
382.892
389.804
394.741
398.707
401.23
403.189
404.01
348.432
348.432
348.432
348.432
348.431
348.428
348.417
348.378
348.254
347.922
347.148
345.594
342.863
338.792
333.58
327.634
321.443
315.24
309.243
303.352
298.066
291.963
288.546
281.95
277.837
275.368
270.859
265.681
262.66
261.596
260.442
257.752
254.153
251.973
251.545
251.837
252.789
253.629
253.706
253.159
251.871
250.872
250.331
250.098
250.088
250.576
254.078
268.379
294.766
320.342
342.632
360.469
373.638
382.541
388.945
393.557
397.333
399.899
402.101
402.764
348.432
348.432
348.432
348.432
348.431
348.428
348.417
348.378
348.253
347.918
347.139
345.573
342.827
338.737
333.508
327.552
321.363
315.168
309.183
303.257
298.04
291.858
288.532
281.995
277.726
275.311
270.963
265.79
262.661
261.552
260.487
257.975
254.382
252.165
251.698
251.959
252.889
253.853
254.021
253.647
252.399
251.172
250.478
250.173
250.151
250.649
254.274
268.863
294.975
320.215
342.368
360.345
373.777
382.947
389.425
393.906
397.44
399.879
401.791
402.247
348.432
348.432
348.432
348.432
348.431
348.428
348.417
348.378
348.254
347.922
347.148
345.592
342.86
338.789
333.577
327.634
321.447
315.249
309.253
303.358
298.099
291.92
288.583
282.008
277.749
275.34
270.98
265.761
262.581
261.468
260.422
257.958
254.316
251.984
251.485
251.724
252.633
253.656
253.87
253.569
252.394
251.093
250.331
250
249.98
250.461
254.034
268.52
294.68
320.006
342.226
360.185
373.478
382.565
389.045
393.621
397.128
399.601
401.403
401.904
348.432
348.432
348.432
348.432
348.431
348.428
348.417
348.378
348.254
347.92
347.142
345.577
342.831
338.74
333.507
327.547
321.355
315.155
309.174
303.236
298.036
291.841
288.53
282.006
277.689
275.295
270.997
265.806
262.613
261.48
260.456
258.025
254.431
252.128
251.617
251.851
252.776
253.832
254.069
253.778
252.601
251.231
250.432
250.089
250.043
250.471
253.739
267.325
293.283
318.868
341.59
360.2
374.085
383.604
390.18
394.715
398.037
400.327
401.961
402.386
348.432
348.432
348.432
348.432
348.431
348.428
348.417
348.379
348.255
347.922
347.148
345.591
342.858
338.785
333.572
327.632
321.449
315.256
309.262
303.367
298.124
291.899
288.598
282.045
277.715
275.329
271.032
265.805
262.579
261.453
260.435
258.038
254.389
252.022
251.507
251.728
252.631
253.721
253.993
253.738
252.619
251.216
250.378
250.009
249.951
250.324
253.364
266.376
292.235
317.846
340.666
359.349
373.314
382.996
389.776
394.572
398.114
400.616
402.384
402.961
348.432
348.432
348.432
348.432
348.431
348.428
348.417
348.379
348.255
347.921
347.144
345.581
342.836
338.744
333.508
327.542
321.347
315.143
309.164
303.216
298.032
291.821
288.528
282.019
277.65
275.277
271.026
265.818
262.571
261.419
260.423
258.05
254.466
252.112
251.566
251.783
252.705
253.809
254.096
253.852
252.751
251.331
250.458
250.083
250.005
250.344
253.242
265.938
291.645
317.077
339.729
358.369
372.368
382.186
389.068
393.999
397.719
400.458
402.511
403.361
348.432
348.432
348.432
348.432
348.431
348.428
348.417
348.379
348.255
347.923
347.148
345.59
342.856
338.78
333.565
327.627
321.449
315.262
309.271
303.375
298.149
291.883
288.607
282.083
277.684
275.315
271.085
265.851
262.574
261.429
260.448
258.133
254.482
252.065
251.521
251.724
252.604
253.727
254.041
253.823
252.783
251.359
250.465
250.06
249.978
250.273
252.931
264.932
290.509
316.123
338.903
357.513
371.366
381.036
387.821
392.741
396.622
399.612
401.924
402.99
348.432
348.432
348.432
348.432
348.431
348.428
348.417
348.379
348.255
347.922
347.147
345.585
342.842
338.748
333.509
327.54
321.341
315.131
309.154
303.191
298.03
291.79
288.531
282.049
277.589
275.246
271.086
265.852
262.504
261.311
260.372
258.135
254.555
252.127
251.525
251.718
252.608
253.737
254.055
253.855
252.854
251.419
250.521
250.121
250.031
250.271
252.579
263.422
288.348
314.333
337.782
357.283
371.91
382.08
389.003
393.781
397.372
400.071
402.215
403.223
348.432
348.432
348.432
348.432
348.431
348.428
348.417
348.379
348.256
347.923
347.149
345.59
342.855
338.775
333.557
327.619
321.446
315.266
309.28
303.387
298.176
291.868
288.619
282.129
277.642
275.296
271.151
265.906
262.553
261.378
260.441
258.228
254.587
252.121
251.539
251.724
252.577
253.707
254.03
253.832
252.844
251.406
250.487
250.075
249.973
250.195
252.376
262.817
287.576
313.716
337.279
356.802
371.437
381.628
388.618
393.538
397.343
400.161
402.383
403.451
348.432
348.432
348.432
348.432
348.431
348.428
348.417
348.379
348.256
347.924
347.15
345.588
342.847
338.753
333.512
327.539
321.337
315.121
309.144
303.166
298.024
291.763
288.527
282.075
277.541
275.219
271.136
265.881
262.449
261.221
260.329
258.207
254.627
252.146
251.504
251.684
252.558
253.689
253.996
253.811
252.85
251.406
250.495
250.091
249.992
250.223
252.506
263.349
288.48
314.6
337.889
357.059
371.357
381.272
388.053
392.736
396.469
399.3
401.625
402.81
348.432
348.432
348.432
348.432
348.431
348.428
348.418
348.379
348.257
347.925
347.151
345.591
342.855
338.77
333.548
327.608
321.439
315.266
309.286
303.393
298.199
291.859
288.627
282.165
277.608
275.284
271.205
265.944
262.531
261.332
260.42
258.267
254.647
252.176
251.577
251.76
252.611
253.715
253.993
253.769
252.737
251.337
250.46
250.049
249.951
250.178
252.399
263.013
288.086
314.411
337.898
357.207
371.573