/*--------------------------------*- C++ -*----------------------------------*\
| =========                 |                                                 |
| \\      /  F ield         | OpenFOAM: The Open Source CFD Toolbox           |
|  \\    /   O peration     | Version:  5.x                                   |
|   \\  /    A nd           | Web:      www.OpenFOAM.org                      |
|    \\/     M anipulation  |                                                 |
\*---------------------------------------------------------------------------*/
/*   Windows 32 and 64 bit porting by blueCAPE: http://www.bluecape.com.pt   *\
|  Based on Windows porting (2.0.x v4) by Symscape: http://www.symscape.com   |
\*---------------------------------------------------------------------------*/
FoamFile
{
    version     2.0;
    format      ascii;
    class       volVectorField;
    location    "0.006";
    object      U;
}
// * * * * * * * * * * * * * * * * * * * * * * * * * * * * * * * * * * * * * //

dimensions      [0 1 -1 0 0 0 0];

internalField   nonuniform List<vector> 
10000
(
(3.87157e-006 1.35813e-009 0)
(2.7472e-005 1.004e-007 4.3482e-021)
(0.000151138 1.05587e-006 4.46843e-021)
(0.00079657 7.80964e-006 -1.8368e-020)
(0.00376268 4.57153e-005 2.83135e-020)
(0.016583 0.000233375 -2.19327e-024)
(0.0656862 0.00102656 -1.99348e-020)
(0.236796 0.00391441 0)
(0.74611 0.012964 0)
(2.06238 0.0365061 0)
(4.99464 0.0881769 -4.37447e-020)
(10.6724 0.184817 1.29877e-021)
(20.0594 0.342606 4.67717e-020)
(33.3443 0.549745 0)
(49.678 0.781865 0)
(67.6225 1.01 0)
(86.0584 1.23322 0)
(104.301 1.42584 -4.62667e-020)
(122.107 1.62326 9.66847e-020)
(139.359 1.81144 -5.03248e-020)
(156.026 1.95722 4.7594e-020)
(171.938 2.13819 -5.09141e-020)
(187.183 2.26091 0)
(201.588 2.43194 0)
(215.027 2.59161 0)
(227.559 2.71837 0)
(239.21 2.81138 0)
(249.767 2.86063 0)
(258.958 3.02239 -1.07052e-019)
(266.831 3.09752 1.11855e-019)
(273.535 3.09471 0)
(279.076 3.10855 0)
(283.529 3.05329 0)
(286.867 2.82641 0)
(289.021 2.78873 -1.24687e-019)
(290.244 2.54325 2.5709e-019)
(291.018 2.43713 -2.62148e-019)
(291.733 2.30217 1.33048e-019)
(292.641 2.17883 -1.35548e-019)
(293.919 1.98822 1.38763e-019)
(295.573 1.76641 -1.42426e-019)
(297.542 1.5274 1.46324e-019)
(299.753 1.28144 0)
(302.214 1.08859 0)
(304.851 0.807846 -1.63278e-019)
(307.525 0.604895 1.78777e-019)
(310.274 0.440421 0)
(313.146 0.314351 0)
(316.175 0.251891 0)
(319.346 0.301741 2.7235e-019)
(322.484 0.513958 -2.94241e-019)
(325.53 0.85164 0)
(328.149 0.889146 0)
(330.105 1.08275 3.51427e-019)
(331.433 1.36984 -3.6617e-019)
(332.048 1.61168 0)
(331.929 1.8869 0)
(331.103 2.14107 4.00522e-019)
(329.492 2.20077 -2.13003e-022)
(326.898 2.45603 -4.13876e-019)
(3.81845e-006 -5.61202e-008 2.18911e-021)
(2.69836e-005 -4.3087e-007 -2.24965e-021)
(0.000147597 -2.47714e-006 0)
(0.00077529 -1.35596e-005 0)
(0.00364808 -6.57665e-005 0)
(0.0160472 -0.000294686 0)
(0.0634557 -0.00117172 2.06195e-020)
(0.228893 -0.0042584 -2.11988e-020)
(0.722045 -0.0135387 -2.17138e-020)
(1.99945 -0.0368986 2.2391e-020)
(4.85246 -0.0863891 0)
(10.3975 -0.179063 -4.59243e-020)
(19.6049 -0.326524 4.84033e-020)
(32.6968 -0.514211 -4.66912e-020)
(48.8701 -0.724478 5.01718e-020)
(66.7125 -0.932395 0)
(85.1012 -1.14148 0)
(103.337 -1.32272 0)
(121.164 -1.50552 0)
(138.461 -1.69543 0)
(155.186 -1.79625 0)
(171.187 -2.01682 0)
(186.547 -2.1015 0)
(201.059 -2.25785 0)
(214.628 -2.42311 -5.12429e-020)
(227.34 -2.5531 5.46709e-020)
(239.188 -2.63676 -5.31268e-020)
(249.937 -2.69749 5.67134e-020)
(259.315 -2.78769 0)
(267.393 -2.87728 0)
(274.363 -2.92252 0)
(280.196 -2.94295 0)
(284.919 -2.83805 1.20483e-019)
(288.536 -2.73593 -1.26177e-019)
(290.929 -2.65049 0)
(292.316 -2.55055 0)
(293.178 -2.22278 0)
(293.849 -2.33827 1.36689e-019)
(294.558 -2.26336 -1.39853e-019)
(295.45 -2.19252 0)
(296.534 -2.09121 -1.47343e-019)
(297.748 -1.97008 3.02904e-019)
(299.028 -1.84868 -1.55891e-019)
(300.398 -1.70354 0)
(301.854 -1.69006 -1.69999e-019)
(303.285 -1.54799 3.74484e-019)
(304.634 -1.35308 -4.21631e-019)
(305.921 -1.22046 2.3601e-019)
(307.185 -1.17666 0)
(308.424 -1.16723 0)
(309.431 -1.17821 0)
(310.089 -1.27423 0)
(310.212 -1.52906 0)
(309.625 -1.68312 0)
(308.331 -1.76138 -3.62695e-019)
(306.405 -1.76833 3.72381e-019)
(304.027 -1.66643 -3.80988e-019)
(301.45 -1.48259 3.87147e-019)
(298.74 -1.22534 0)
(295.631 -0.95827 0)
(3.80614e-006 -5.85534e-008 2.2651e-021)
(2.68937e-005 -3.0705e-007 2.32774e-021)
(0.000147046 -9.58057e-007 -4.78422e-021)
(0.000772505 -1.65304e-006 0)
(0.00363514 6.60446e-006 1.01047e-020)
(0.015996 8.51083e-005 -1.03845e-020)
(0.0632726 0.000535074 0)
(0.228333 0.00239762 0)
(0.720644 0.00881447 0)
(1.99662 0.0270477 0)
(4.84764 0.0705889 0)
(10.3903 0.153208 0)
(19.5962 0.290952 -4.79809e-020)
(32.6865 0.476001 5.11194e-020)
(48.8529 0.686068 0)
(66.676 0.893709 -4.8912e-020)
(85.0314 1.09707 3.66857e-021)
(103.218 1.27362 1.02876e-019)
(120.977 1.45853 -5.3634e-020)
(138.207 1.62119 0)
(154.815 1.80014 0)
(170.773 1.9025 0)
(185.956 2.0727 5.18976e-020)
(200.348 2.23318 -5.59234e-020)
(213.882 2.36842 0)
(226.451 2.47992 0)
(238.082 2.57313 0)
(248.683 2.64483 0)
(258.024 2.78817 0)
(266.074 2.85376 0)
(272.915 2.83957 0)
(278.574 2.86186 0)
(283.157 2.79962 0)
(286.664 2.55001 0)
(289.03 2.53647 1.33058e-019)
(290.445 2.32361 -1.37857e-019)
(291.236 2.3577 1.41007e-019)
(291.768 2.05874 -1.44264e-019)
(292.29 1.87576 1.46965e-019)
(292.891 1.67283 -1.50306e-019)
(293.597 1.36199 0)
(294.353 0.999478 -1.58317e-019)
(295.105 0.635449 3.25396e-019)
(295.886 0.356904 1.18842e-022)
(296.725 0.0544588 -1.74816e-019)
(297.499 -0.0445172 -1.8972e-019)
(298.169 -0.0594741 2.12773e-019)
(298.84 -0.0163497 2.37413e-019)
(299.647 0.0977347 -2.61863e-019)
(300.662 0.231718 0)
(301.738 0.373807 3.07429e-019)
(302.823 0.976729 -3.26855e-019)
(303.669 1.20527 0)
(304.044 1.46882 -3.58967e-019)
(303.897 1.81325 3.72397e-019)
(303.157 2.19899 0)
(301.819 2.584 3.94455e-019)
(299.955 3.04805 -4.04329e-019)
(297.562 3.42422 0)
(294.458 3.49069 0)
(3.76109e-006 -1.00271e-007 2.34362e-021)
(2.64946e-005 -6.88853e-007 2.40843e-021)
(0.000144194 -3.52854e-006 4.95006e-021)
(0.000755435 -1.75086e-005 -1.01739e-020)
(0.00354301 -7.80099e-005 0)
(0.0155633 -0.000324974 0)
(0.0614551 -0.00121362 0)
(0.221843 -0.00420961 0)
(0.700688 -0.0131161 0)
(1.94388 -0.0347527 2.37881e-020)
(4.72708 -0.0795267 -3.83187e-022)
(10.1549 -0.16365 -2.52892e-020)
(19.2026 -0.297013 0)
(32.1191 -0.466224 -5.00334e-020)
(48.1373 -0.654106 5.37395e-020)
(65.8636 -0.834389 0)
(84.1704 -1.02224 0)
(102.347 -1.18495 0)
(120.123 -1.34803 -5.17707e-020)
(137.393 -1.52665 5.59213e-020)
(154.031 -1.61123 0)
(170.122 -1.80978 5.3373e-020)
(185.344 -1.89986 -5.69931e-020)
(199.827 -2.0191 0)
(213.573 -2.18099 0)
(226.305 -2.3111 0)
(237.989 -2.3967 -5.64832e-020)
(248.702 -2.44987 2.54125e-021)
(258.292 -2.4665 6.14513e-020)
(266.654 -2.55003 0)
(273.79 -2.66897 0)
(279.635 -2.6851 -6.25726e-020)
(284.321 -2.5763 6.52019e-020)
(288.009 -2.58532 0)
(290.575 -2.43268 0)
(292.175 -2.39421 0)
(293.159 -2.0634 0)
(293.76 -2.05187 0)
(294.189 -2.03248 0)
(294.509 -1.95421 0)
(294.752 -1.88925 0)
(294.899 -1.82057 0)
(294.924 -1.76452 1.68971e-019)
(294.876 -1.69561 -1.74135e-019)
(294.832 -1.72103 0)
(294.676 -1.62844 0)
(294.325 -1.59642 0)
(293.92 -1.5693 -2.52804e-019)
(293.639 -1.54726 2.77461e-019)
(293.622 -1.65569 0)
(293.825 -1.63042 0)
(294.063 -1.26109 0)
(294.219 -1.5402 0)
(294.203 -1.68092 0)
(293.876 -1.66207 0)
(293.23 -1.49624 3.9246e-019)
(292.24 -1.14039 -4.03541e-019)
(290.905 -0.594729 -4.13546e-019)
(289.214 -0.0820923 4.2407e-019)
(286.925 0.355971 -4.30929e-019)
(3.73798e-006 -1.081e-007 0)
(2.63258e-005 -6.4583e-007 4.98367e-021)
(0.000143162 -2.65461e-006 -6.59243e-027)
(0.000750132 -9.76163e-006 -1.57893e-020)
(0.003518 -2.7621e-005 1.08173e-020)
(0.0154612 -4.77654e-005 0)
(0.0610806 7.76698e-005 -2.28396e-020)
(0.220646 0.00101031 2.34809e-020)
(0.6975 0.00475631 0)
(1.93679 0.0177057 0)
(4.71345 0.0524821 0)
(10.1318 0.12103 -2.54501e-020)
(19.17 0.240028 5.25134e-020)
(32.0787 0.409555 -2.73698e-020)
(48.088 0.603234 -5.20855e-020)
(65.7958 0.79048 5.62321e-020)
(84.074 0.974738 0)
(102.207 1.13603 0)
(119.921 1.30319 5.35842e-020)
(137.129 1.46485 -5.78835e-020)
(153.685 1.61551 0)
(169.681 1.74151 0)
(184.806 1.876 0)
(199.174 2.02234 5.63756e-020)
(212.806 2.16463 -6.06632e-020)
(225.433 2.26901 -5.79538e-020)
(237.014 2.35729 6.14032e-020)
(247.601 2.41392 0)
(257.067 2.52011 -6.13278e-020)
(265.323 2.52831 6.49267e-020)
(272.344 2.63305 0)
(278.107 2.62986 0)
(282.726 2.54737 0)
(286.299 2.3695 -6.84935e-020)
(288.784 2.30695 7.13023e-020)
(290.34 2.15003 0)
(291.211 2.1635 0)
(291.708 1.7749 0)
(292.099 1.67572 0)
(292.43 1.49144 1.62191e-019)
(292.732 1.1797 -3.32276e-019)
(292.968 0.819143 1.70509e-019)
(293.092 0.461517 1.75261e-019)
(293.123 0.178243 -1.8057e-019)
(293.131 -0.0663889 0)
(292.987 -0.212442 0)
(292.589 -0.330152 0)
(292.081 -0.355301 0)
(291.647 -0.242048 2.86532e-019)
(291.489 -0.03364 -3.09126e-019)
(291.592 0.378573 0)
(291.759 0.859659 3.4825e-019)
(291.906 1.27516 -3.64217e-019)
(291.956 1.63093 -3.79017e-019)
(291.768 2.04531 -6.68738e-023)
(291.259 2.48255 4.05393e-019)
(290.398 2.941 -4.16873e-019)
(289.175 3.48328 4.28382e-019)
(287.554 4.08152 4.39048e-019)
(285.346 4.39653 -8.94925e-019)
(3.69772e-006 -1.37247e-007 0)
(2.59856e-005 -9.05534e-007 0)
(0.000140788 -4.41038e-006 0)
(0.000736102 -2.07979e-005 0)
(0.00344257 -8.80209e-005 0)
(0.0151071 -0.000348549 0)
(0.0595859 -0.00124237 2.36298e-020)
(0.215275 -0.00410097 -2.42931e-020)
(0.68086 -0.0126329 0)
(1.89243 -0.0324606 0)
(4.61097 -0.072633 -2.59639e-020)
(9.92986 -0.148036 2.70709e-020)
(18.8287 -0.267602 0)
(31.5808 -0.418804 0)
(47.4522 -0.589499 0)
(65.068 -0.748653 0)
(83.2971 -0.916016 0)
(101.417 -1.0595 0)
(119.148 -1.20642 0)
(136.379 -1.36548 0)
(152.987 -1.45522 0)
(169.043 -1.61484 -5.71724e-020)
(184.26 -1.71138 6.10834e-020)
(198.752 -1.80615 0)
(212.477 -1.95242 0)
(225.202 -2.07573 0)
(236.937 -2.14118 6.05359e-020)
(247.739 -2.19818 -6.46083e-020)
(257.393 -2.20187 0)
(265.79 -2.35576 0)
(272.974 -2.38569 0)
(278.904 -2.41485 0)
(283.713 -2.34713 0)
(287.552 -2.30843 0)
(290.254 -2.22521 0)
(291.947 -2.19135 0)
(292.932 -1.88018 0)
(293.488 -1.97417 0)
(293.877 -1.85369 0)
(294.118 -1.74253 0)
(294.292 -1.69721 0)
(294.398 -1.65508 0)
(294.396 -1.60643 -1.80525e-019)
(294.298 -1.52414 1.86039e-019)
(294.177 -1.46834 0)
(293.906 -1.42169 0)
(293.349 -1.42327 0)
(292.617 -1.44347 0)
(291.872 -1.43491 0)
(291.316 -1.46208 3.21716e-019)
(290.97 -1.48801 -3.42169e-019)
(290.663 -1.65017 0)
(290.333 -1.72763 0)
(289.956 -1.68214 0)
(289.425 -1.49132 0)
(288.68 -1.14294 0)
(287.706 -0.651938 0)
(286.504 0.0297587 0)
(285.008 0.95856 0)
(283.03 1.74015 0)
(3.66879e-006 -1.47525e-007 0)
(2.57741e-005 -9.13258e-007 0)
(0.000139493 -3.99415e-006 0)
(0.000729367 -1.62066e-005 0)
(0.00341043 -5.51686e-005 0)
(0.0149737 -0.000156515 0)
(0.0590893 -0.000307468 0)
(0.213655 -0.000154008 0)
(0.676443 0.00118194 0)
(1.88229 0.00937759 0)
(4.59083 0.0356017 0)
(9.89472 0.0910595 0)
(18.7775 0.191451 0)
(31.5166 0.344956 0)
(47.3781 0.526138 0)
(64.9768 0.69879 0)
(83.1813 0.865121 0)
(101.264 1.01083 0)
(118.937 1.16212 0)
(136.115 1.31793 0)
(152.648 1.44776 0)
(168.621 1.58984 0)
(183.748 1.69409 0)
(198.125 1.83904 0)
(211.755 1.97934 0)
(224.397 2.06681 0)
(236.035 2.13697 0)
(246.711 2.18584 0)
(256.25 2.26499 0)
(264.561 2.30721 0)
(271.658 2.37942 0)
(277.53 2.38153 0)
(282.273 2.30186 0)
(285.981 2.17956 0)
(288.595 2.07182 -7.57785e-020)
(290.258 1.93988 7.87327e-020)
(291.158 1.92066 0)
(291.654 1.5742 0)
(292.086 1.54729 0)
(292.47 1.40372 0)
(292.881 1.13493 8.85745e-020)
(293.306 0.821291 -9.09152e-020)
(293.684 0.515746 0)
(293.994 0.286862 0)
(294.29 0.109337 0)
(294.437 -0.0400663 0)
(294.287 -0.174277 -1.23118e-019)
(293.925 -0.229104 1.37482e-019)
(293.478 -0.164592 0)
(293.146 0.0964268 0)
(292.954 0.37225 0)
(292.761 0.593789 0)
(292.511 1.1619 0)
(292.133 1.61077 0)
(291.508 2.17486 0)
(290.575 2.74484 0)
(289.339 3.23336 0)
(287.844 3.73988 0)
(286.027 4.32752 0)
(283.762 4.86014 0)
(3.63141e-006 -1.68078e-007 -2.68491e-021)
(2.54727e-005 -1.08819e-006 8.27749e-021)
(0.000137449 -5.16411e-006 -5.67093e-021)
(0.000717503 -2.36502e-005 0)
(0.00334723 -9.68637e-005 0)
(0.0146784 -0.000369976 0)
(0.0578429 -0.00127314 0)
(0.209158 -0.00400427 -2.59702e-020)
(0.662446 -0.012241 2.6721e-020)
(1.84475 -0.0303987 2.72614e-020)
(4.50335 -0.066459 -2.82181e-020)
(9.72088 -0.133497 -2.82073e-020)
(18.4809 -0.24014 2.96934e-020)
(31.0791 -0.374056 0)
(46.812 -0.527824 2.88882e-020)
(64.3226 -0.674279 -3.11671e-020)
(82.478 -0.821958 0)
(100.545 -0.945509 0)
(118.232 -1.07794 -5.9449e-020)
(135.427 -1.21473 4.22568e-021)
(152.004 -1.30946 6.45972e-020)
(168.034 -1.43573 0)
(183.241 -1.53939 0)
(197.731 -1.616 6.25926e-020)
(211.447 -1.74593 -6.72122e-020)
(224.179 -1.84789 0)
(235.949 -1.9097 0)
(246.807 -1.96273 0)
(256.519 -1.96304 0)
(264.967 -2.11283 0)
(272.214 -2.15446 0)
(278.225 -2.16 0)
(283.128 -2.14475 -7.35405e-020)
(287.074 -2.06063 7.6745e-020)
(289.879 -2.02162 -7.83093e-020)
(291.663 -1.97879 1.62213e-019)
(292.688 -1.75909 -8.35541e-020)
(293.28 -1.86956 0)
(293.748 -1.68422 -8.71035e-020)
(294.084 -1.58773 1.78152e-019)
(294.422 -1.56603 -9.12889e-020)
(294.767 -1.54792 0)
(295.069 -1.52197 9.63409e-020)
(295.304 -1.4636 -1.9849e-019)
(295.525 -1.38062 1.03565e-019)
(295.614 -1.34476 -1.12906e-019)
(295.418 -1.37941 1.27514e-019)
(295 -1.45461 0)
(294.479 -1.52745 0)
(294.018 -1.50254 0)
(293.651 -1.70229 -1.82242e-019)
(293.294 -1.78653 1.92299e-019)
(292.84 -1.5436 -2.01326e-019)
(292.268 -1.44477 2.09294e-019)
(291.521 -1.13801 0)
(290.485 -0.646456 0)
(289.186 -0.0522641 0)
(287.681 0.777286 0)
(285.911 1.72285 0)
(283.735 2.90406 0)
(3.59981e-006 -1.78559e-007 -2.77749e-021)
(2.52424e-005 -1.12083e-006 -2.8543e-021)
(0.000136034 -5.02735e-006 5.86647e-021)
(0.000710094 -2.1181e-005 0)
(0.00331153 -7.66013e-005 0)
(0.0145285 -0.000242255 0)
(0.0572771 -0.000618427 0)
(0.207285 -0.0011022 -1.3433e-020)
(0.657254 -0.00182577 4.13783e-020)
(1.83256 0.0022713 -2.06165e-022)
(4.47867 0.0205602 -4.33998e-022)
(9.67707 0.0641702 -5.9156e-020)
(18.4158 0.146773 1.23528e-021)
(30.9966 0.284 1.66596e-021)
(46.7187 0.452461 3.18761e-020)
(64.2141 0.618066 -3.00831e-020)
(82.349 0.767194 3.25195e-020)
(100.383 0.896636 -3.05162e-020)
(118.017 1.03313 3.2978e-020)
(135.168 1.17873 0)
(151.677 1.28914 0)
(167.631 1.46033 0)
(182.757 1.52576 0)
(197.138 1.66472 -6.47924e-020)
(210.769 1.80173 6.96064e-020)
(223.431 1.87615 0)
(235.114 1.93742 0)
(245.861 1.97273 0)
(255.465 2.01994 7.0473e-020)
(263.835 2.09874 -1.46413e-019)
(271.015 2.16029 2.07857e-021)
(276.987 2.14587 7.60131e-020)
(281.84 2.08341 0)
(285.664 1.97551 0)
(288.39 1.8593 8.11491e-020)
(290.15 1.74186 -8.43403e-020)
(291.081 1.71051 -8.63374e-020)
(291.593 1.43965 8.86874e-020)
(292.064 1.37821 0)
(292.477 1.28317 9.22131e-020)
(292.956 1.04116 -9.44332e-020)
(293.499 0.753304 0)
(294.038 0.462589 0)
(294.528 0.225031 1.02581e-019)
(295.01 0.0749349 -1.06775e-019)
(295.358 -0.0719122 0)
(295.42 -0.214946 0)
(295.251 -0.294352 0)
(294.959 -0.218115 1.61004e-019)
(294.698 -0.037674 -1.7461e-019)
(294.537 0.205501 0)
(294.414 0.620663 0)
(294.158 1.1436 -2.07472e-019)
(293.706 1.61484 2.15963e-019)
(293.021 2.1326 0)
(291.996 2.60399 -2.31246e-019)
(290.644 3.12835 2.69133e-023)
(289.024 3.81596 4.88906e-019)
(287.117 4.44459 -2.50936e-019)
(284.813 5.21653 2.5585e-019)
(3.56438e-006 -1.93403e-007 0)
(2.49678e-005 -1.23989e-006 0)
(0.000134223 -5.802e-006 0)
(0.000699792 -2.61176e-005 0)
(0.00325732 -0.00010477 -1.28174e-020)
(0.0142772 -0.000390285 1.31722e-020)
(0.0562212 -0.00130891 0)
(0.203468 -0.0039428 0)
(0.645352 -0.0119839 0)
(1.80053 -0.0287002 0)
(4.40355 -0.0612678 0)
(9.52674 -0.120625 0)
(18.1572 -0.215485 0)
(30.6114 -0.332957 0)
(46.2142 -0.470003 0)
(63.6249 -0.603666 0)
(81.7097 -0.738837 0)
(99.7265 -0.842119 0)
(117.373 -0.961784 0)
(134.534 -1.07212 0)
(151.082 -1.17274 0)
(167.089 -1.2748 0)
(182.282 -1.38114 0)
(196.769 -1.43849 0)
(210.481 -1.55197 0)
(223.22 -1.64641 0)
(235.015 -1.69593 0)
(245.917 -1.73504 0)
(255.687 -1.74594 0)
(264.193 -1.85192 0)
(271.501 -1.91796 0)
(277.585 -1.91763 0)
(282.571 -1.93787 0)
(286.609 -1.83201 8.10272e-020)
(289.506 -1.83305 -1.685e-019)
(291.372 -1.78469 8.71342e-020)
(292.424 -1.67082 8.9137e-020)
(293.01 -1.66375 -9.15041e-020)
(293.48 -1.52792 0)
(293.808 -1.43969 0)
(294.153 -1.44409 0)
(294.547 -1.45102 0)
(294.932 -1.45322 0)
(295.269 -1.4324 0)
(295.596 -1.36337 0)
(295.807 -1.33113 0)
(295.75 -1.38608 1.35301e-019)
(295.468 -1.47255 -1.51395e-019)
(295.055 -1.54408 1.67147e-019)
(294.663 -1.65014 -1.81326e-019)
(294.368 -1.61998 0)
(294.11 -1.48897 0)
(293.751 -1.39207 0)
(293.273 -1.23543 0)
(292.624 -0.847594 0)
(291.677 -0.417265 -2.39191e-019)
(290.457 0.335937 2.46086e-019)
(288.977 1.43967 0)
(287.217 2.65963 0)
(285.08 3.94516 0)
(3.532e-006 -2.02884e-007 0)
(2.4733e-005 -1.28077e-006 0)
(0.00013278 -5.81544e-006 0)
(0.000692201 -2.496e-005 0)
(0.00322046 -9.29574e-005 1.32585e-020)
(0.0141208 -0.000308385 -1.36255e-020)
(0.0556246 -0.000863249 0)
(0.20147 -0.00185974 0)
(0.639735 -0.00429484 1.47447e-020)
(1.78711 -0.00363972 -1.51993e-020)
(4.37592 0.00753809 -3.07805e-020)
(9.47704 0.040532 6.33151e-020)
(18.0822 0.106655 -3.28733e-020)
(30.5151 0.22764 0)
(46.106 0.383062 0)
(63.5035 0.541249 0)
(81.5726 0.679808 -3.24432e-020)
(99.5599 0.792737 6.77623e-020)
(117.158 0.915049 -3.53181e-020)
(134.281 1.04773 0)
(150.767 1.13804 0)
(166.707 1.34432 0)
(181.827 1.36409 0)
(196.209 1.50166 0)
(209.85 1.63532 0)
(222.533 1.70194 0)
(234.247 1.74902 0)
(245.043 1.78268 -7.35314e-020)
(254.711 1.80198 7.84501e-020)
(263.153 1.89814 0)
(270.422 1.96071 0)
(276.486 1.93158 0)
(281.437 1.88245 0)
(285.366 1.77151 0)
(288.2 1.64381 0)
(290.063 1.56116 0)
(291.052 1.52261 0)
(291.586 1.31669 0)
(292.071 1.22459 -9.65315e-020)
(292.472 1.14319 9.85583e-020)
(292.936 0.907871 0)
(293.484 0.625013 0)
(294.043 0.335505 1.0638e-019)
(294.558 0.086749 -1.09485e-019)
(295.058 -0.0742789 0)
(295.424 -0.24312 1.2339e-019)
(295.505 -0.414238 -1.39116e-019)
(295.336 -0.494905 0)
(295.009 -0.425342 0)
(294.696 -0.187173 0)
(294.497 0.174869 0)
(294.347 0.642201 -2.1124e-019)
(294.086 1.06684 2.21583e-019)
(293.679 1.53097 2.30734e-019)
(293.079 2.02202 -1.37177e-022)
(292.186 2.48387 -2.47369e-019)
(291.018 3.1855 2.5465e-019)
(289.567 4.01272 -2.6159e-019)
(287.811 4.95296 2.68591e-019)
(285.692 5.85879 -5.47895e-019)
(3.49817e-006 -2.13847e-007 0)
(2.44788e-005 -1.36332e-006 3.15924e-021)
(0.000131142 -6.33089e-006 -3.24661e-021)
(0.000683062 -2.82099e-005 0)
(0.00317301 -0.000111721 0)
(0.0139031 -0.000409299 0)
(0.0547154 -0.00134826 0)
(0.198183 -0.00391921 0)
(0.629495 -0.0118615 1.52523e-020)
(1.75953 -0.027386 -1.57218e-020)
(4.31096 -0.05711 0)
(9.34632 -0.109631 0)
(17.8559 -0.193899 3.26685e-020)
(30.1752 -0.296011 -3.47312e-020)
(45.6557 -0.416599 -3.31317e-020)
(62.9719 -0.537281 2.37436e-021)
(80.9894 -0.661004 3.60357e-020)
(98.9585 -0.748164 0)
(116.567 -0.856225 3.41042e-020)
(133.696 -0.941371 -3.68175e-020)
(150.218 -1.0451 0)
(166.204 -1.12061 3.51547e-020)
(181.379 -1.23413 -7.28554e-020)
(195.863 -1.27305 3.80722e-020)
(209.575 -1.36738 -3.64936e-020)
(222.322 -1.45397 3.87419e-020)
(234.132 -1.50176 -7.44147e-020)
(245.067 -1.53621 3.41414e-021)
(254.894 -1.55051 8.11351e-020)
(263.463 -1.597 0)
(270.83 -1.67131 0)
(276.984 -1.68996 0)
(282.046 -1.73744 -8.42237e-020)
(286.169 -1.62412 8.79384e-020)
(289.164 -1.64912 0)
(291.127 -1.60707 -9.26275e-020)
(292.236 -1.54799 9.58122e-020)
(292.846 -1.42793 -9.77905e-020)
(293.34 -1.34608 9.43531e-023)
(293.68 -1.28101 4.28755e-023)
(294.037 -1.31251 -1.0181e-024)
(294.47 -1.34318 -6.35274e-024)
(294.92 -1.36328 1.09786e-019)
(295.33 -1.3539 -1.13081e-019)
(295.726 -1.28784 1.17706e-019)
(296.002 -1.32557 0)
(296.005 -1.3556 0)
(295.749 -1.42952 0)
(295.304 -1.50673 0)
(294.812 -1.43547 0)
(294.39 -1.42101 0)
(294.015 -1.40613 -2.18582e-019)
(293.584 -1.35595 4.58274e-019)
(293.102 -1.17271 -1.32182e-022)
(292.509 -0.714561 -2.47467e-019)
(291.697 -0.0366539 0)
(290.656 0.949387 0)
(289.356 2.13289 0)
(287.761 3.53319 0)
(285.813 5.0113 -2.83384e-019)
(3.46613e-006 -2.21855e-007 0)
(2.42478e-005 -1.40325e-006 -3.26777e-021)
(0.000129725 -6.41225e-006 1.00744e-020)
(0.000675587 -2.78006e-005 -6.902e-021)
(0.0031365 -0.000105278 0)
(0.0137469 -0.000358627 1.45767e-020)
(0.0541143 -0.00105266 -2.99578e-020)
(0.196148 -0.00245654 1.53962e-020)
(0.623708 -0.00628838 1.57766e-020)
(1.74549 -0.00846251 -1.62618e-020)
(4.28166 -0.00350816 -1.64707e-020)
(9.29298 0.0201097 5.05985e-020)
(17.7743 0.0711913 -6.89702e-020)
(30.0692 0.176316 3.59272e-020)
(45.5366 0.318361 0)
(62.8413 0.468564 0)
(80.8479 0.597863 0)
(98.7913 0.698445 -3.50043e-020)
(116.356 0.807374 3.78175e-020)
(133.453 0.929826 -3.55976e-020)
(149.915 1.00226 3.83353e-020)
(165.843 1.23429 3.63853e-020)
(180.955 1.21095 -3.88632e-020)
(195.336 1.35088 0)
(208.989 1.48344 0)
(221.695 1.54226 0)
(233.432 1.58357 0)
(244.267 1.61584 0)
(253.997 1.61843 0)
(262.512 1.70992 -8.25472e-020)
(269.863 1.77407 8.61661e-020)
(276.009 1.73758 -8.50647e-020)
(281.048 1.69797 8.88717e-020)
(285.073 1.59122 0)
(288.012 1.45494 9.27929e-020)
(289.985 1.39653 -9.65614e-020)
(291.064 1.34031 9.88005e-020)
(291.65 1.19263 -1.01574e-019)
(292.176 1.06958 0)
(292.619 0.993699 -1.05295e-019)
(293.13 0.760753 -3.67326e-024)
(293.755 0.489996 -1.05769e-023)
(294.42 0.220073 1.13506e-019)
(295.059 -0.00573215 0)
(295.678 -0.151787 0)
(296.172 -0.485374 -1.30279e-019)
(296.376 -0.592897 1.46745e-019)
(296.282 -0.623638 0)
(295.969 -0.535363 1.81921e-019)
(295.57 -0.182071 -3.9565e-019)
(295.199 0.192028 -3.19443e-022)
(294.855 0.543756 2.24468e-019)
(294.405 0.81291 0)
(293.848 1.33527 0)
(293.165 2.0156 2.5505e-019)
(292.262 2.77396 -5.27382e-019)
(291.139 3.48351 -3.64602e-023)
(289.786 4.28833 5.59013e-019)
(288.171 5.24528 -2.87166e-019)
(286.235 6.42904 0)
(3.43382e-006 -2.30059e-007 0)
(2.40106e-005 -1.46149e-006 -3.37992e-021)
(0.000128225 -6.75878e-006 3.47339e-021)
(0.000667352 -2.99373e-005 -7.13884e-021)
(0.00309426 -0.000117667 7.3363e-021)
(0.013555 -0.00042654 0)
(0.0533195 -0.00138849 1.54904e-020)
(0.193278 -0.00392759 -3.18323e-020)
(0.614794 -0.0118508 1.63662e-020)
(1.7215 -0.0264188 1.67043e-020)
(4.22505 -0.0539143 -1.72834e-020)
(9.17861 -0.100479 0)
(17.5752 -0.175403 0)
(29.7682 -0.26339 0)
(45.1338 -0.367992 0)
(62.3608 -0.475361 3.57094e-020)
(80.3145 -0.587581 -7.45363e-020)
(98.2381 -0.662433 7.50934e-020)
(115.811 -0.759665 -7.56547e-020)
(132.909 -0.822604 3.9423e-020)
(149.41 -0.933719 3.7142e-020)
(165.372 -0.969697 -4.01311e-020)
(180.531 -1.09417 0)
(195.013 -1.11874 0)
(208.724 -1.19182 0)
(221.478 -1.26976 0)
(233.302 -1.31565 0)
(244.263 -1.34749 0)
(254.142 -1.36712 4.17503e-020)
(262.773 -1.35654 -8.68046e-020)
(270.196 -1.42264 4.4515e-020)
(276.414 -1.47623 0)
(281.546 -1.53807 0)
(285.748 -1.42754 -9.27151e-020)
(288.842 -1.47515 1.02853e-021)
(290.911 -1.41953 7.0369e-022)
(292.103 -1.38829 4.80176e-022)
(292.771 -1.23106 2.17787e-022)
(293.332 -1.14975 1.06755e-019)
(293.747 -1.12749 -1.08738e-019)
(294.191 -1.19206 2.22502e-019)
(294.759 -1.24547 -1.14126e-019)
(295.389 -1.28608 0)
(296.013 -1.30032 0)
(296.621 -1.26632 1.25247e-019)
(297.142 -1.47713 -1.33989e-019)
(297.415 -1.48798 0)
(297.378 -1.50605 -1.69392e-019)
(297.09 -1.49163 3.75048e-019)
(296.643 -1.37843 -2.04237e-019)
(296.139 -1.33413 2.19445e-019)
(295.614 -1.32662 -2.3218e-019)
(295.034 -1.34244 -2.43863e-019)
(294.417 -0.958294 2.54099e-019)
(293.676 -0.322621 2.63675e-019)
(292.717 0.489282 -2.72582e-019)
(291.555 1.41584 0)
(290.19 2.60296 0)
(288.588 3.94522 0)
(286.682 5.59344 0)
(3.40274e-006 -2.36521e-007 0)
(2.37881e-005 -1.49618e-006 0)
(0.000126863 -6.86054e-006 0)
(0.000660164 -2.99144e-005 0)
(0.00305902 -0.000114458 0)
(0.0134034 -0.000396345 0)
(0.052731 -0.00119725 0)
(0.191269 -0.00292173 0)
(0.60902 -0.00788044 0)
(1.70732 -0.0123419 0)
(4.19506 -0.0127313 0)
(9.12343 0.00266541 0)
(17.4898 0.0402297 0)
(29.656 0.130159 0)
(45.0072 0.258647 0)
(62.2241 0.400161 0)
(80.1715 0.520494 0)
(98.0732 0.612236 0)
(115.606 0.709171 0)
(132.677 0.822373 0)
(149.119 0.879585 0)
(165.034 1.12673 0)
(180.138 1.06521 -3.91318e-020)
(194.521 1.21008 4.21705e-020)
(208.182 1.34297 0)
(220.904 1.39594 0)
(232.665 1.43084 0)
(243.539 1.46012 0)
(253.329 1.45168 0)
(261.909 1.54864 0)
(269.326 1.60368 0)
(275.547 1.56072 0)
(280.673 1.5241 -4.66429e-020)
(284.792 1.43828 4.87219e-020)
(287.838 1.28029 0)
(289.927 1.25136 0)
(291.114 1.19084 0)
(291.782 1.06171 0)
(292.382 0.953657 0)
(292.92 0.841042 0)
(293.549 0.601683 0)
(294.332 0.32751 1.18041e-019)
(295.2 0.0590965 -1.21239e-019)
(296.077 -0.161656 0)
(296.932 -0.29809 0)
(297.698 -0.605953 0)
(298.211 -0.700283 0)
(298.395 -0.70106 -1.72702e-019)
(298.31 -0.5611 1.91601e-019)
(298.038 -0.341802 0)
(297.68 0.00267365 0)
(297.263 0.394421 0)
(296.706 0.721684 0)
(296.011 1.50347 0)
(295.144 2.19761 0)
(294.034 2.86812 0)
(292.716 3.5848 0)
(291.199 4.39077 0)
(289.476 5.27114 0)
(287.489 6.41893 0)
(3.37198e-006 -2.4267e-007 0)
(2.3566e-005 -1.53763e-006 0)
(0.000125479 -7.09577e-006 3.71558e-021)
(0.000652664 -3.13203e-005 -3.81833e-021)
(0.00302094 -0.000122591 0)
(0.013232 -0.000441594 0)
(0.0520269 -0.00142706 0)
(0.188732 -0.00395909 0)
(0.601173 -0.0119252 -1.74575e-020)
(1.68624 -0.0257462 3.58639e-020)
(4.14533 -0.0515481 -1.84886e-020)
(9.02269 -0.093061 0)
(17.3138 -0.159834 0)
(29.3884 -0.234992 0)
(44.6462 -0.324264 0)
(61.7889 -0.418031 -3.82281e-020)
(79.6821 -0.518771 2.79238e-021)
(97.5628 -0.584638 4.16004e-020)
(115.102 -0.674126 0)
(132.17 -0.705432 0)
(148.652 -0.836929 3.97668e-020)
(164.591 -0.824552 -4.29684e-020)
(179.734 -0.960632 0)
(194.217 -0.971901 0)
(207.923 -1.0262 0)
(220.681 -1.09772 0)
(232.521 -1.14471 4.26495e-020)
(243.511 -1.17518 -1.96899e-021)
(253.438 -1.19751 -4.64959e-020)
(262.12 -1.16315 0)
(269.59 -1.18546 0)
(275.869 -1.26997 0)
(281.073 -1.34438 0)
(285.355 -1.26037 4.95901e-020)
(288.547 -1.32489 -5.60134e-022)
(290.723 -1.24995 -1.06373e-019)
(292.005 -1.23341 5.48687e-020)
(292.75 -1.06072 0)
(293.4 -0.982965 5.70206e-020)
(293.922 -0.999259 -5.81587e-020)
(294.501 -1.09855 -1.1889e-019)
(295.253 -1.17878 1.21942e-019)
(296.12 -1.2501 0)
(297.022 -1.30569 0)
(297.912 -1.32614 0)
(298.747 -1.49796 0)
(299.372 -1.52436 0)
(299.671 -1.52956 0)
(299.666 -1.47246 -1.97517e-019)
(299.421 -1.41385 -1.90407e-022)
(299.023 -1.30254 4.65943e-019)
(298.507 -1.15347 2.94875e-022)
(297.913 -0.998798 -2.60082e-019)
(297.213 -0.395194 0)
(296.297 0.20485 0)
(295.138 0.919811 -2.91631e-019)
(293.761 1.85813 3.00738e-019)
(292.175 2.96786 0)
(290.387 4.20814 3.17748e-019)
(288.356 5.60108 -3.24812e-019)
(3.34222e-006 -2.477e-007 0)
(2.33544e-005 -1.56562e-006 0)
(0.000124187 -7.19305e-006 -3.84278e-021)
(0.000645851 -3.14664e-005 1.18471e-020)
(0.00298745 -0.000121215 -1.83863e-025)
(0.0130873 -0.000424338 -1.66813e-020)
(0.0514618 -0.00130637 1.71408e-020)
(0.186787 -0.00328139 -8.80907e-021)
(0.595535 -0.00914528 0)
(1.67225 -0.0154262 0)
(4.11538 -0.020342 1.88568e-020)
(8.96707 -0.0121353 -1.96356e-020)
(17.2267 0.013468 1.93568e-020)
(29.2728 0.089055 -2.05638e-020)
(44.515 0.204002 0)
(61.6487 0.33633 0)
(79.5397 0.447741 0)
(97.4018 0.533536 0)
(114.906 0.620366 0)
(131.951 0.722924 -4.081e-020)
(148.375 0.769727 4.39349e-020)
(164.276 1.02656 0)
(179.372 0.929253 0)
(193.761 1.07346 -4.25839e-020)
(207.425 1.21136 4.57842e-020)
(220.159 1.25991 0)
(231.944 1.28679 -4.41485e-020)
(242.858 1.31129 9.21761e-020)
(252.704 1.29315 -4.81196e-020)
(261.34 1.39622 0)
(268.812 1.46171 0)
(275.1 1.39666 -4.86873e-020)
(280.311 1.35677 5.08687e-020)
(284.521 1.29453 5.13548e-020)
(287.671 1.10408 -5.76959e-022)
(289.869 1.11064 -5.52559e-020)
(291.16 1.0477 5.65038e-020)
(291.909 0.926041 -1.35681e-022)
(292.587 0.833611 -6.27267e-023)
(293.232 0.675454 -3.21527e-023)
(293.996 0.423641 -1.22954e-019)
(294.957 0.135902 1.26087e-019)
(296.042 -0.152017 9.86197e-024)
(297.169 -0.396629 -1.33164e-019)
(298.277 -0.55113 6.87645e-020)
(299.32 -0.73513 0)
(300.143 -0.784825 -1.6064e-019)
(300.635 -0.792617 3.62527e-019)
(300.824 -0.688428 -2.02031e-019)
(300.769 -0.451759 0)
(300.557 -0.122614 2.39751e-019)
(300.198 0.276179 -2.5499e-019)
(299.653 0.887394 0)
(298.901 1.6268 0)
(297.9 2.29277 -2.91402e-019)
(296.635 2.888 6.03032e-019)
(295.139 3.58114 -3.11034e-019)
(293.427 4.38076 0)
(291.519 5.26774 0)
(289.403 6.31366 0)
(3.31306e-006 -2.52262e-007 0)
(2.31464e-005 -1.59498e-006 0)
(0.000122904 -7.35316e-006 3.97424e-021)
(0.000638973 -3.23898e-005 -4.08414e-021)
(0.00295282 -0.000126527 8.394e-021)
(0.0129326 -0.000454227 -8.62634e-021)
(0.0508311 -0.001462 0)
(0.18452 -0.00400471 0)
(0.588556 -0.012058 1.86738e-020)
(1.65356 -0.0253077 -1.92452e-020)
(4.07134 -0.0498726 0)
(8.87771 -0.0871996 1.98071e-020)
(17.0702 -0.14693 -2.08183e-020)
(29.0339 -0.210573 2.01861e-020)
(44.1903 -0.285265 -2.16288e-020)
(61.2537 -0.36518 0)
(79.0899 -0.45455 0)
(96.9297 -0.514282 4.15218e-020)
(114.437 -0.597398 -8.66971e-020)
(131.478 -0.601397 2.94639e-021)
(147.943 -0.749321 4.54602e-020)
(163.857 -0.685066 4.31654e-020)
(178.986 -0.839934 -4.60751e-020)
(193.472 -0.838384 0)
(207.171 -0.871851 0)
(219.93 -0.939339 4.51628e-020)
(231.785 -0.989251 -4.7915e-020)
(242.804 -1.0177 0)
(252.777 -1.04302 0)
(261.504 -0.990484 -4.88737e-020)
(269.013 -0.988349 1.00561e-019)
(275.349 -1.07437 -5.15568e-020)
(280.625 -1.16027 0)
(284.979 -1.11064 0)
(288.263 -1.19004 0)
(290.539 -1.09566 5.66877e-020)
(291.902 -1.09237 -3.04447e-022)
(292.717 -0.92364 -1.44171e-022)
(293.442 -0.853283 -6.10322e-020)
(294.057 -0.908794 0)