/*--------------------------------*- C++ -*----------------------------------*\
| =========                 |                                                 |
| \\      /  F ield         | OpenFOAM: The Open Source CFD Toolbox           |
|  \\    /   O peration     | Version:  5.x                                   |
|   \\  /    A nd           | Web:      www.OpenFOAM.org                      |
|    \\/     M anipulation  |                                                 |
\*---------------------------------------------------------------------------*/
/*   Windows 32 and 64 bit porting by blueCAPE: http://www.bluecape.com.pt   *\
|  Based on Windows porting (2.0.x v4) by Symscape: http://www.symscape.com   |
\*---------------------------------------------------------------------------*/
FoamFile
{
    version     2.0;
    format      ascii;
    class       volScalarField;
    location    "0.001";
    object      mag(U);
}
// * * * * * * * * * * * * * * * * * * * * * * * * * * * * * * * * * * * * * //

dimensions      [0 1 -1 0 0 0 0];

internalField   nonuniform List<scalar> 
1000
(
1.25978e-013
3.6745e-013
1.75878e-013
2.69265e-013
1.46484e-013
4.0761e-013
4.52009e-013
2.18207e-013
2.48662e-013
2.25024e-013
2.1613e-013
1.80436e-013
1.55832e-013
5.32436e-014
7.73127e-014
7.5854e-014
9.62762e-014
1.12322e-013
1.15969e-013
1.27639e-013
1.63378e-013
2.12735e-013
3.47522e-013
3.26743e-013
1.99862e-013
4.49715e-013
5.20832e-013
2.49329e-013
3.33454e-013
2.75742e-013
4.59303e-013
2.81993e-013
2.5853e-013
4.70766e-013
3.09251e-013
4.66869e-013
5.49351e-013
3.22986e-013
4.59488e-013
1.83127e-013
6.62977e-013
4.84213e-013
3.03247e-013
1.31466e-013
2.1881e-013
7.08085e-014
5.77674e-014
7.13486e-013
2.94016e-013
1.57658e-013
2.18887e-013
1.31132e-013
5.12054e-013
3.65022e-013
1.6514e-013
4.0143e-013
4.69666e-013
2.89697e-013
1.22707e-013
2.9721e-013
1.04095e-013
2.68352e-013
2.46927e-013
2.3037e-013
4.24589e-013
2.73717e-013
5.1672e-013
3.21319e-013
1.95471e-013
2.40404e-013
3.78585e-013
4.18777e-013
1.14378e-013
2.69128e-013
5.7282e-013
4.30244e-013
4.09579e-013
1.78217e-013
1.762e-013
6.12142e-013
8.14271e-013
5.31739e-013
5.08561e-013
1.51483e-013
3.4783e-013
1.37345e-013
5.21208e-013
6.58329e-013
1.1393e-013
2.58788e-013
1.74062e-013
2.41437e-013
4.64166e-013
1.8522e-013
2.205e-013
7.7632e-014
2.73309e-013
8.18718e-013
1.33448e-013
4.80204e-013
1.35159e-013
3.52911e-013
2.27679e-013
7.79602e-014
4.55335e-013
5.83674e-014
4.90559e-013
2.10062e-013
7.20006e-014
4.3179e-013
2.3945e-013
1.92587e-013
7.29383e-013
4.20115e-013
8.2857e-013
7.18007e-013
6.24352e-013
4.38903e-013
3.15302e-013
2.68505e-013
2.56338e-013
4.51415e-013
7.79329e-014
6.48545e-013
1.88983e-013
4.91045e-013
9.98777e-014
2.97582e-013
2.2794e-013
2.06728e-013
1.00602e-013
5.14965e-014
2.8244e-013
3.79287e-013
3.36825e-013
6.51935e-013
2.30166e-013
3.25084e-013
1.2797e-013
7.76448e-013
2.78271e-013
2.7081e-013
1.56193e-013
4.06868e-013
3.67415e-013
1.59731e-013
3.13706e-013
2.2922e-013
3.50436e-013
6.53681e-013
1.45471e-013
3.15572e-013
1.05675e-013
3.98041e-013
3.57666e-013
1.05029e-013
2.68739e-013
1.56193e-013
9.24914e-013
5.00108e-012
2.47576e-011
1.17089e-010
5.49177e-010
2.50837e-009
1.11674e-008
4.83752e-008
2.03662e-007
8.32282e-007
3.29691e-006
1.26406e-005
4.68318e-005
0.00016735
0.000575624
0.00190143
0.00601616
0.0181785
0.0522753
0.142493
0.366465
0.884589
1.99341
4.17274
8.07223
14.3502
23.3075
34.6469
47.7759
62.1996
77.5602
93.5764
110.03
126.701
143.529
160.171
176.735
192.932
208.693
223.967
238.383
251.734
263.822
274.483
283.019
289.229
293.518
295.579
296.443
297.067
297.425
296.471
293.74
291.285
289.955
289.174
289.015
289.151
288.852
287.646
285.071
280.544
271.864
250.91
189.166
85.3677
21.5376
4.24585
0.742172
0.123987
0.020385
0.0033179
0.000535161
8.55741e-005
1.35714e-005
2.13583e-006
3.33764e-007
5.18228e-008
7.99948e-009
1.2286e-009
1.87301e-010
2.84104e-011
4.18461e-012
3.23793e-013
3.18909e-013
6.06076e-014
3.0826e-014
8.31125e-014
1.98535e-013
2.74242e-013
4.70427e-014
4.67492e-014
5.95774e-014
1.92843e-013
2.35169e-013
5.54366e-014
3.47962e-014
5.91147e-014
1.94143e-013
2.33726e-013
6.91784e-014
2.83235e-014
1.14276e-013
2.06348e-013
1.46501e-013
6.1906e-014
1.31806e-013
1.71182e-013
5.02265e-013
5.07916e-013
4.62577e-013
2.94108e-013
2.94017e-014
1.59838e-013
2.40961e-013
8.58083e-014
1.33751e-013
3.60449e-013
2.45325e-013
2.99364e-013
8.89894e-014
1.02963e-013
1.97583e-013
8.4685e-014
1.03727e-013
9.50305e-014
6.14139e-013
7.01614e-013
5.25383e-013
3.52828e-013
3.94294e-013
5.58133e-013
4.89848e-013
2.39721e-013
1.32709e-013
7.03354e-013
6.1959e-013
4.8771e-013
3.71414e-013
2.1528e-013
3.62143e-013
1.36281e-013
3.34253e-013
3.52895e-013
1.90213e-013
3.34103e-013
3.11434e-013
4.88768e-013
7.51705e-013
6.16521e-013
8.86229e-014
7.44627e-014
1.06193e-013
5.03989e-013
8.18106e-014
4.50857e-013
2.22835e-013
6.8974e-013
9.83638e-013
8.25286e-013
5.23185e-013
9.39143e-013
4.81876e-013
5.07127e-013
6.93951e-013
2.0513e-013
6.76946e-013
1.80891e-013
4.98985e-013
1.57151e-013
3.53519e-013
2.03526e-013
6.73331e-013
3.243e-013
3.12944e-013
2.79816e-013
7.2167e-013
1.10187e-012
1.70927e-013
5.12253e-013
4.94642e-013
2.93495e-013
4.80056e-013
1.65392e-013
9.02523e-013
4.95469e-013
5.82292e-013
1.84647e-013
7.6289e-014
4.1569e-013
1.08555e-013
1.76051e-013
1.23573e-013
4.56794e-013
4.14118e-013
4.34258e-013
1.87808e-013
2.23209e-013
1.04933e-013
2.59831e-013
6.23548e-013
7.29824e-013
4.69074e-013
5.04711e-013
1.73851e-013
7.39957e-013
5.85139e-013
5.90441e-013
5.58128e-013
2.20615e-013
3.8457e-013
1.72093e-013
2.92588e-013
7.26811e-013
1.22676e-012
6.86393e-013
1.12843e-012
9.58078e-013
7.75176e-013
4.04541e-013
4.61016e-013
5.78833e-013
3.82259e-013
3.74156e-013
1.37474e-013
5.64618e-013
4.24184e-013
4.05749e-013
1.08167e-012
1.00111e-013
1.1547e-013
7.05575e-013
1.8523e-013
2.48832e-013
4.77195e-013
2.86946e-013
1.0357e-013
4.38178e-013
9.30172e-013
1.02151e-012
5.61788e-014
1.22678e-013
1.46915e-014
5.75352e-013
6.73524e-013
3.54581e-013
2.80137e-013
2.00112e-013
2.27274e-013
2.13441e-013
4.20323e-013
4.00163e-013
5.46891e-013
6.06834e-013
7.86881e-013
3.0676e-013
1.30035e-012
9.67053e-013
9.66932e-013
6.93816e-013
3.66949e-013
7.73617e-013
6.01296e-013
4.54912e-013
8.6587e-014
5.07859e-013
6.07971e-013
8.13929e-013
1.25367e-012
7.33533e-013
6.53641e-013
8.23597e-014
1.41052e-013
8.54999e-014
7.20641e-013
9.35116e-013
8.0858e-013
9.10622e-013
7.99699e-013
8.79567e-013
7.64237e-013
1.32426e-013
4.47984e-013
2.71357e-013
4.44371e-013
1.59434e-013
6.72208e-013
3.64567e-013
1.35454e-013
6.95217e-013
5.79026e-013
7.89455e-013
9.60518e-013
5.88092e-013
1.11688e-012
3.21746e-013
1.99293e-013
1.703e-013
2.04309e-013
4.55141e-013
5.7175e-013
4.02856e-012
2.34931e-011
1.16105e-010
5.47842e-010
2.50713e-009
1.11668e-008
4.83743e-008
2.03662e-007
8.32282e-007
3.29691e-006
1.26406e-005
4.68317e-005
0.00016735
0.000575624
0.00190143
0.00601616
0.0181785
0.0522753
0.142493
0.366465
0.884589
1.99341
4.17274
8.07223
14.3502
23.3075
34.6469
47.7759
62.1996
77.5602
93.5764
110.03
126.701
143.529
160.171
176.735
192.932
208.693
223.967
238.383
251.734
263.822
274.483
283.019
289.229
293.518
295.579
296.443
297.067
297.425
296.471
293.74
291.285
289.955
289.174
289.015
289.151
288.852
287.646
285.071
280.544
271.864
250.91
189.166
85.3677
21.5376
4.24585
0.742172
0.123987
0.020385
0.0033179
0.000535161
8.55741e-005
1.35714e-005
2.13583e-006
3.33764e-007
5.18229e-008
8.00042e-009
1.22928e-009
1.87918e-010
2.90214e-011
5.2822e-012
1.50839e-012
1.34813e-012
9.21005e-013
4.34367e-013
8.00558e-013
3.07001e-013
5.47699e-014
2.05448e-014
2.06968e-013
2.21161e-013
3.40584e-013
1.03672e-013
1.8823e-013
4.64224e-014
7.05317e-014
3.74866e-013
2.81349e-013
2.17781e-013
2.03815e-013
3.0337e-013
9.39681e-014
2.03531e-013
2.16772e-013
4.01933e-013
7.40552e-013
2.48496e-013
2.3597e-013
5.97853e-014
2.89796e-013
4.1971e-014
2.04234e-013
8.77679e-014
1.16882e-013
4.484e-013
2.40874e-013
6.36023e-013
8.96524e-013
4.26039e-013
2.34516e-013
2.01498e-013
2.90004e-013
5.92799e-013
1.82714e-013
4.75866e-013
3.45658e-013
4.05218e-013
1.86008e-013
1.28906e-013
7.17924e-013
7.12288e-013
2.92608e-013
2.33302e-013
4.30908e-013
1.27069e-013
2.49027e-013
3.50303e-013
4.28337e-013
2.94237e-013
6.53405e-013
2.6674e-013
4.00109e-013
3.33424e-013
2.00055e-013
3.33424e-013
1.3337e-013
6.00164e-013
1.8253e-026
4.00109e-013
2.00055e-013
3.33424e-013
8.54494e-027
2.6674e-013
2.6674e-013
3.33424e-013
6.66849e-014
4.00109e-013
2.6674e-013
2.00055e-013
1.3337e-013
3.33424e-013
6.66849e-014
2.00055e-013
2.6674e-013
6.66849e-014
3.33424e-013
1.3337e-013
2.6674e-013
6.66849e-014
2.00055e-013
3.33424e-013
1.3337e-013
2.00055e-013
8.57018e-027
1.3337e-013
1.51635e-026
1.29294e-026
1.27354e-026
2.00055e-013
2.00055e-013
6.77789e-027
6.66849e-014
1.3337e-013
6.66849e-014
6.66849e-014
1.3337e-013
2.00055e-013
6.66849e-014
1.3337e-013
8.77538e-027
1.3337e-013
1.3337e-013
6.66849e-014
2.00055e-013
1.3337e-013
2.00055e-013
2.00055e-013
6.66849e-014
1.3337e-013
6.66849e-014
2.00055e-013
1.3337e-013
3.33424e-013
1.3337e-013
3.33424e-013
4.08945e-027
4.66794e-013
7.18904e-027
5.33479e-013
9.79775e-027
4.66794e-013
6.66849e-014
4.00109e-013
2.6674e-013
5.33479e-013
3.33424e-013
4.66794e-013
1.3337e-013
5.33479e-013
1.3337e-013
3.33424e-013
2.00055e-013
2.00055e-013
2.00055e-013
2.6674e-013
2.00055e-013
1.3337e-013
2.6674e-013
2.00055e-013
2.00055e-013
3.33424e-013
2.00055e-013
6.66849e-013
4.66794e-013
5.33479e-013
4.66794e-013
6.00164e-013
3.33424e-013
4.66794e-013
2.00055e-013
9.43317e-013
1.12815e-012
9.04513e-013
8.07248e-013
6.51759e-013
3.50351e-013
7.78076e-013
1.13794e-012
1.01168e-012
7.29771e-013
9.43906e-013
4.39863e-013
4.87946e-013
2.18377e-013
1.90025e-013
3.03817e-013
8.64452e-014
2.2598e-013
6.88083e-014
3.41835e-013
7.22854e-014
2.08009e-013
6.96196e-014
7.29366e-014
2.92e-013
5.15883e-014
1.57129e-013
1.96011e-013
2.00484e-014
2.43122e-014
3.16117e-014
2.55278e-014
5.41595e-014
5.18062e-014
8.72555e-014
4.55854e-014
3.24877e-014
4.04088e-014
2.34994e-013
3.07528e-014
3.22137e-013
6.32117e-014
3.58605e-014
2.17455e-014
1.48762e-013
1.67773e-013
1.97147e-013
3.1347e-013
4.58722e-013
1.3502e-013
8.98648e-014
4.20148e-013
8.51643e-014
2.74809e-013
7.01719e-014
8.86729e-014
2.39312e-013
1.35893e-013
5.67574e-014
2.28031e-013
8.89661e-014
8.59222e-014
1.50971e-013
1.71332e-013
4.43698e-014
1.12633e-013
4.65279e-014
3.88995e-014
4.52396e-014
2.8261e-013
1.57046e-013
5.79936e-014
4.02484e-014
1.28627e-013
3.13187e-013
5.28336e-014
1.39633e-013
4.77139e-013
1.77267e-013
7.22854e-014
1.95864e-013
1.10722e-013
4.52396e-014
7.40625e-014
5.15883e-013
1.38868e-013
6.75512e-014
1.47885e-013
1.67191e-013
3.40371e-014
1.68669e-013
6.3448e-014
1.94498e-014
1.11578e-014
2.04332e-013
1.86287e-013
4.97398e-014
2.56105e-013
1.32635e-013
1.33008e-013
5.20907e-014
3.13929e-013
5.0769e-013
2.2827e-013
3.19768e-013
8.33048e-014
2.89152e-013
6.46706e-014
1.38485e-013
2.37028e-013
5.16634e-014
3.82298e-013
1.90459e-013
8.86729e-014
1.23011e-013
2.86715e-013
7.54878e-014
5.16634e-014
6.08564e-014
2.8608e-013
1.61968e-013
6.62368e-014
2.08363e-013
8.95621e-014
1.78326e-013
2.965e-013
1.42641e-013
5.25953e-014
6.26511e-014
9.33114e-014
1.20903e-013
1.77666e-013
8.2878e-014
1.10722e-013
1.27333e-013
4.36436e-014
1.10266e-013
6.7247e-014
2.93725e-013
7.08086e-014
8.37471e-014
4.58722e-014
2.55278e-014
3.11585e-014
2.82116e-013
1.70294e-014
2.72379e-013
1.36161e-013
2.43271e-013
1.94498e-014
8.44681e-013
3.66954e-013
5.89186e-013
5.00375e-013
5.56111e-013
4.66927e-013
4.78344e-013
6.89219e-013
6.00544e-013
2.01951e-013
2.13259e-013
4.71533e-014
9.71548e-014
1.27141e-013
4.42759e-014
1.3883e-013
3.806e-013
2.13785e-013
1.4891e-013
9.45985e-014
5.32224e-014
1.47366e-013
2.68913e-013
3.24214e-013
4.73379e-014
5.38499e-014
2.02786e-013
3.75433e-014
7.50676e-014
2.583e-013
1.92903e-013
3.02998e-013
3.80412e-014
2.82121e-013
2.36631e-013
1.72493e-013
1.60839e-013
1.81757e-013
8.67119e-014
5.65223e-014
3.24577e-013
6.86899e-014
4.50289e-014
1.81406e-013
3.02856e-013
1.47504e-013
7.59222e-014
8.53062e-014
1.08939e-013
5.57794e-014
2.81388e-013
7.07872e-014
1.40722e-013
5.01813e-013
1.41314e-013
2.81225e-013
6.43615e-014
5.11067e-014
4.80181e-014
5.07161e-014
2.70153e-013
5.081e-014
6.2321e-014
6.73063e-014
1.19995e-013
1.52419e-013
1.84105e-013
2.70278e-013
2.26253e-013
6.68129e-013
4.12233e-013
1.3758e-013
1.69585e-013
2.78878e-013
2.03107e-013
4.43616e-014
8.31199e-014
9.32316e-014
3.01987e-013
3.23299e-013
2.57103e-013
3.7163e-014
1.14437e-013
2.68881e-013
2.24339e-013
2.90309e-013
1.49037e-013
1.5831e-013
2.14414e-013
3.45831e-013
7.59222e-014
1.05772e-013
5.55187e-014
1.48499e-013
3.9085e-013
6.57164e-014
5.57798e-014
4.52354e-014
2.36849e-013
8.09242e-014
8.97347e-014
3.25084e-013
4.25118e-013
3.58629e-013
2.94921e-013
1.63412e-013
1.57811e-013
5.83152e-014
5.67564e-014
1.95293e-013
2.28149e-013
5.92278e-014
5.69695e-014
2.72881e-013
6.12697e-014
6.84876e-014
7.67092e-014
1.95831e-013
5.97482e-014
2.39982e-013
3.13929e-013
1.20831e-013
2.27373e-013
2.59315e-013
6.34261e-014
1.01092e-013
5.57098e-014
1.74355e-013
2.37464e-013
2.8184e-013
4.35468e-013
2.58426e-013
2.24056e-013
8.36829e-014
3.46165e-013
4.79094e-013
2.92147e-013
2.36746e-013
3.1547e-013
1.48419e-013
1.73489e-013
2.9154e-013
2.80898e-013
6.3429e-013
2.13908e-013
5.11665e-013
1.25509e-013
1.23673e-013
1.90039e-013
1.23557e-013
)
;

boundaryField
{
    inlet
    {
        type            calculated;
        value           nonuniform List<scalar> 2(3.34253e-013 1.25978e-013);
    }
    outlet
    {
        type            calculated;
        value           nonuniform List<scalar> 2(1.23557e-013 1.94498e-014);
    }
    bottom
    {
        type            symmetryPlane;
    }
    top
    {
        type            symmetryPlane;
    }
    obstacle
    {
        type            calculated;
        value           nonuniform List<scalar> 
102
(
1.36281e-013
9.43317e-013
2.6674e-013
4.00109e-013
3.33424e-013
2.00055e-013
3.33424e-013
1.3337e-013
6.00164e-013
1.8253e-026
4.00109e-013
2.00055e-013
3.33424e-013
8.54494e-027
2.6674e-013
2.6674e-013
3.33424e-013
6.66849e-014
4.00109e-013
2.6674e-013
2.00055e-013
1.3337e-013
3.33424e-013
6.66849e-014
2.00055e-013
2.6674e-013
6.66849e-014
3.33424e-013
1.3337e-013
2.6674e-013
6.66849e-014
2.00055e-013
3.33424e-013
1.3337e-013
2.00055e-013
8.57018e-027
1.3337e-013
1.51635e-026
1.29294e-026
1.27354e-026
2.00055e-013
2.00055e-013
6.77789e-027
6.66849e-014
1.3337e-013
6.66849e-014
6.66849e-014
1.3337e-013
2.00055e-013
6.66849e-014
1.3337e-013
8.77538e-027
1.3337e-013
1.3337e-013
6.66849e-014
2.00055e-013
1.3337e-013
2.00055e-013
2.00055e-013
6.66849e-014
1.3337e-013
6.66849e-014
2.00055e-013
1.3337e-013
3.33424e-013
1.3337e-013
3.33424e-013
4.08945e-027
4.66794e-013
7.18904e-027
5.33479e-013
9.79775e-027
4.66794e-013
6.66849e-014
4.00109e-013
2.6674e-013
5.33479e-013
3.33424e-013
4.66794e-013
1.3337e-013
5.33479e-013
1.3337e-013
3.33424e-013
2.00055e-013
2.00055e-013
2.00055e-013
2.6674e-013
2.00055e-013
1.3337e-013
2.6674e-013
2.00055e-013
2.00055e-013
3.33424e-013
2.00055e-013
6.66849e-013
4.66794e-013
5.33479e-013
4.66794e-013
6.00164e-013
3.33424e-013
4.66794e-013
2.00055e-013
)
;
    }
    defaultFaces
    {
        type            empty;
    }
}


// ************************************************************************* //
