/*--------------------------------*- C++ -*----------------------------------*\
| =========                 |                                                 |
| \\      /  F ield         | OpenFOAM: The Open Source CFD Toolbox           |
|  \\    /   O peration     | Version:  5.x                                   |
|   \\  /    A nd           | Web:      www.OpenFOAM.org                      |
|    \\/     M anipulation  |                                                 |
\*---------------------------------------------------------------------------*/
/*   Windows 32 and 64 bit porting by blueCAPE: http://www.bluecape.com.pt   *\
|  Based on Windows porting (2.0.x v4) by Symscape: http://www.symscape.com   |
\*---------------------------------------------------------------------------*/
FoamFile
{
    version     2.0;
    format      ascii;
    class       surfaceScalarField;
    location    "0.001";
    object      phi;
}
// * * * * * * * * * * * * * * * * * * * * * * * * * * * * * * * * * * * * * //

dimensions      [1 0 -1 0 0 0 0];

internalField   nonuniform List<scalar> 
1447
(
-1.10134e-013
6.58501e-015
-7.81597e-014
6.46011e-015
-1.49214e-013
5.28744e-015
-7.4607e-014
5.80092e-015
9.23706e-014
5.97439e-015
1.98952e-013
5.4054e-015
1.06581e-013
5.0307e-015
-1.81188e-013
3.45557e-015
1.42109e-014
4.16334e-015
9.9476e-014
3.79557e-015
8.17124e-014
4.03844e-015
9.9476e-014
4.35069e-015
2.13163e-014
5.19029e-015
0
3.10169e-015
0
4.26048e-015
0
4.32293e-015
0
5.35683e-015
0
6.25888e-015
0
6.46705e-015
0
6.97359e-015
-4.26326e-014
8.80546e-015
-1.13687e-013
7.66748e-015
-1.77636e-013
8.17402e-015
-3.19744e-014
7.82707e-015
1.10134e-013
9.11771e-015
2.41585e-013
9.07607e-015
1.95399e-013
8.86791e-015
1.56319e-013
7.09849e-015
1.10134e-013
7.09155e-015
1.91847e-013
7.64666e-015
2.06057e-013
6.89726e-015
7.10543e-015
6.08541e-015
-2.23821e-013
8.10463e-015
-2.13163e-014
7.07767e-015
1.98952e-013
8.97893e-015
2.0961e-013
7.10543e-015
1.95399e-013
6.31439e-015
2.27374e-013
7.56339e-015
9.9476e-014
5.32907e-015
2.77112e-013
5.30825e-015
2.41585e-013
3.94823e-015
4.61853e-014
4.06619e-015
-1.3145e-013
3.37924e-015
-5.68434e-014
3.14332e-015
-1.1724e-013
3.27516e-015
2.13163e-014
2.60902e-015
-2.55795e-013
2.9074e-015
-1.74083e-013
3.08781e-015
-1.49214e-013
4.16334e-015
7.10543e-015
3.747e-015
3.90799e-014
4.80171e-015
-1.88294e-013
3.70537e-015
-4.26326e-014
4.2466e-015
7.81597e-014
4.98213e-015
-1.63425e-013
5.22499e-015
-2.20268e-013
5.25968e-015
-1.81188e-013
6.30052e-015
-7.10543e-014
5.38458e-015
2.4869e-014
6.14786e-015
1.03029e-013
7.36217e-015
3.55271e-014
6.04378e-015
1.42109e-014
7.82707e-015
-1.35003e-013
6.46011e-015
7.81597e-014
7.79932e-015
3.55271e-014
6.70991e-015
-1.84741e-013
6.32133e-015
-2.20268e-013
7.04298e-015
-1.3145e-013
6.21031e-015
-7.4607e-014
7.08461e-015
-1.59872e-013
6.21725e-015
2.4869e-014
6.58501e-015
7.10543e-014
6.47399e-015
6.75016e-014
6.75848e-015
2.02505e-013
8.50708e-015
2.20268e-013
8.45851e-015
2.34479e-013
8.9373e-015
1.06581e-013
9.11077e-015
3.19744e-014
8.60423e-015
1.38556e-013
9.72139e-015
3.87246e-013
9.58261e-015
2.84217e-013
7.16094e-015
2.84217e-013
9.22179e-015
8.88178e-014
7.82707e-015
7.10543e-014
8.28504e-015
1.24345e-013
8.35443e-015
1.10134e-013
6.82787e-015
3.51719e-013
6.91808e-015
1.7053e-013
4.656e-015
-7.4607e-014
6.38378e-015
-8.17124e-014
4.84335e-015
-8.17124e-014
4.82253e-015
4.26326e-014
5.23886e-015
1.7053e-013
5.31519e-015
3.55271e-015
3.70537e-015
-7.81597e-014
4.82253e-015
-5.68434e-014
4.09395e-015
1.20792e-013
4.53804e-015
1.98952e-013
3.48332e-015
2.23821e-013
2.44943e-015
9.59233e-014
2.66454e-015
1.03029e-013
1.29063e-015
6.03961e-014
2.76168e-015
-6.39488e-014
-2.01228e-016
1.10134e-013
1.93595e-015
1.42109e-013
9.36751e-016
1.35003e-013
-9.71445e-017
1.66978e-013
1.04777e-015
7.4607e-014
-3.46945e-017
-9.23706e-014
6.8695e-016
-1.63425e-013
1.59595e-016
-8.88178e-014
7.84095e-016
-2.16716e-013
-1.11022e-016
-3.62377e-013
3.81639e-016
-2.77112e-013
2.63678e-016
-3.58824e-013
4.02456e-016
-3.55271e-013
-8.8124e-016
-2.52243e-013
-6.93889e-018
-2.13163e-013
-1.36002e-015
-2.4869e-014
-2.70617e-016
1.81188e-013
-6.93889e-017
1.35003e-013
-2.65066e-015
1.35003e-013
-2.42861e-015
-1.42109e-013
-3.69149e-015
-1.27898e-013
-1.83187e-015
-9.59233e-014
-1.25594e-015
-1.1724e-013
-1.30451e-015
3.19744e-014
9.08995e-016
2.84217e-014
3.05311e-016
-1.27898e-013
1.11022e-015
-6.39488e-014
2.06085e-015
-2.4869e-014
9.78384e-016
-1.1724e-013
1.82493e-015
-1.20792e-013
2.10942e-015
-1.81188e-013
3.77476e-015
-2.45137e-013
3.32373e-015
-2.38032e-013
4.57967e-015
-1.06581e-013
5.66214e-015
-7.4607e-014
6.70991e-015
-1.63425e-013
6.92502e-015
-1.3145e-013
7.93809e-015
1.20792e-013
7.19563e-015
6.75016e-014
7.36217e-015
9.23706e-014
8.91648e-015
1.06581e-014
7.63278e-015
-1.03029e-013
7.45931e-015
-5.68434e-014
8.88872e-015
-2.13163e-014
7.48707e-015
9.9476e-014
8.7777e-015
-8.52651e-014
7.86871e-015
-1.20792e-013
8.25034e-015
1.03029e-013
5.91888e-015
8.88178e-014
5.98133e-015
9.23706e-014
5.84255e-015
1.06581e-014
5.44703e-015
-1.03029e-013
5.47479e-015
-5.32907e-014
5.78704e-015
-5.32907e-014
5.59275e-015
1.95399e-013
5.1556e-015
1.10134e-012
4.39926e-015
5.61329e-012
4.47559e-015
2.69047e-011
3.21271e-015
1.2729e-010
2.76862e-015
5.88425e-010
1.42247e-015
2.65261e-009
8.88178e-016
1.16419e-008
-2.498e-016
4.96868e-008
-2.498e-016
2.0597e-007
-1.4988e-015
8.28216e-007
-1.04083e-015
3.22584e-006
-1.82493e-015
1.21512e-005
-3.18495e-015
4.41904e-005
-3.57353e-015
0.000154857
-3.95517e-015
0.000521794
-3.77476e-015
0.00168647
-5.78704e-015
0.00521396
-6.30052e-015
0.0153705
-6.64052e-015
0.0430465
-6.39766e-015
0.114034
-6.21031e-015
0.2843
-6.8695e-015
0.663202
-6.64052e-015
1.4387
-6.50174e-015
2.88671
-6.43235e-015
5.32422
-5.2805e-015
8.96925
-4.48253e-015
13.6898
-4.21191e-015
18.9876
-3.84415e-015
24.4413
-3.28904e-015
29.7868
-2.81719e-015
34.8491
-3.97599e-015
39.5141
-3.9066e-015
43.7288
-2.48759e-015
47.4157
-3.7817e-016
50.7139
-4.23273e-016
53.3945
-1.01308e-015
55.5829
-1.24553e-015
57.7477
-2.04003e-015
59.0992
-2.11983e-015
59.9233
-1.79717e-015
60.9325
-1.71044e-015
61.8867
-1.1692e-015
62.0542
-7.1991e-016
61.7226
-7.73687e-016
61.2866
-8.06646e-016
61.5654
-1.12584e-015
61.9074
-1.4988e-015
61.9686
-1.55605e-015
61.9223
-1.84922e-015
61.4103
-2.16667e-015
59.1818
-2.5379e-015
53.2697
-2.68709e-015
47.7907
-2.76515e-015
43.9472
-2.81893e-015
41.3905
-3.12944e-015
39.8201
-3.38791e-015
38.8581
-3.62557e-015
38.1899
-3.92741e-015
37.7378
-4.28997e-015
37.2888
-4.52242e-015
36.787
-4.35936e-015
36.1243
-3.79731e-015
34.2582
-3.75741e-015
28.3713
-5.32213e-015
11.6153
-6.23807e-015
3.30922
-2.60555e-015
0.673517
-1.36696e-015
0.116783
-1.05038e-015
0.0195215
-1.00961e-015
0.00322232
-9.47159e-016
0.000526928
-1.06685e-015
8.53966e-005
-9.58435e-016
1.37185e-005
-1.01048e-015
2.18514e-006
-9.94864e-016
3.45278e-007
-8.93383e-016
5.4154e-008
-1.05645e-015
8.43622e-009
-8.67362e-016
1.30617e-009
-9.02056e-016
2.0111e-010
-8.96852e-016
3.0806e-011
-7.47666e-016
4.68181e-012
-8.11851e-016
7.05436e-013
-5.79398e-016
9.68114e-014
-6.78277e-016
1.22125e-014
-4.08527e-016
1.19904e-014
-4.2067e-016
2.22045e-015
-3.50414e-016
-2.22045e-015
-2.75821e-016
-8.21565e-015
-1.64799e-016
1.77636e-015
-1.03216e-016
1.33227e-014
-4.77049e-017
-4.44089e-016
-9.88792e-017
-3.9968e-015
-6.59195e-017
-5.77316e-015
-1.48319e-016
8.88178e-016
-1.49186e-016
1.11022e-014
-2.5327e-016
8.88178e-016
-2.71484e-016
-3.9968e-015
-2.18575e-016
-5.77316e-015
-1.18829e-016
8.88178e-016
-2.25514e-016
1.11022e-014
-1.49186e-016
1.77636e-015
-4.04191e-016
-2.66454e-015
-2.71484e-016
-1.06581e-014
-2.63678e-016
-3.10862e-015
-2.77556e-016
5.32907e-015
-3.34802e-016
2.66454e-015
-4.00721e-016
5.77316e-015
-2.89699e-016
2.81997e-014
-2.35055e-016
2.57572e-014
-2.28116e-016
3.33067e-014
-1.93422e-016
2.62013e-014
-3.20056e-016
6.66134e-015
-3.35669e-016
-4.44089e-015
-2.37657e-016
1.77636e-015
-3.56486e-016
1.37668e-014
-2.3332e-016
4.44089e-015
-3.42608e-016
1.93179e-014
-3.20924e-016
3.9968e-015
-4.8659e-016
-2.13163e-014
-4.80518e-016
-1.02141e-014
-5.6205e-016
9.32587e-015
-6.03684e-016
-1.02141e-014
-6.23633e-016
-1.55431e-015
-6.03684e-016
-4.44089e-015
-6.35776e-016
6.66134e-015
-6.87818e-016
2.04281e-014
-6.80012e-016
3.88578e-014
-7.10369e-016
4.32987e-014
-7.87564e-016
2.13163e-014
-8.75168e-016
-8.88178e-016
-1.01221e-015
-2.62013e-014
-9.82721e-016
-3.73035e-014
-9.84456e-016
-1.57652e-014
-9.85323e-016
-1.02141e-014
-1.05298e-015
-1.46549e-014
-9.68843e-016
-4.52971e-014
-1.0816e-015
-3.70814e-014
-9.36751e-016
-2.30926e-014
-9.14199e-016
-1.37668e-014
-8.26596e-016
-2.17604e-014
-7.71085e-016
-1.15463e-014
-7.26849e-016
-5.91541e-016
-9.66338e-013
-1.16529e-012
4.54747e-013
0
-1.39266e-012
-1.90425e-012
-2.64322e-012
-9.37916e-013
-1.13687e-013
-1.13687e-013
8.81073e-013
9.37916e-013
-1.10845e-012
-3.41061e-013
1.90425e-012
2.89901e-012
3.29692e-012
2.18847e-012
2.30216e-012
2.89901e-012
1.25056e-012
2.33058e-012
1.62004e-012
1.0516e-012
1.36424e-012
-1.02318e-012
-9.37916e-013
9.66338e-013
6.25278e-013
-7.67386e-013
-5.11591e-013
1.08002e-012
9.09495e-013
1.62004e-012
-5.40012e-013
-2.78533e-012
-7.95808e-013
-1.93268e-012
-1.36424e-012
-1.56319e-012
-9.37916e-013
-2.04636e-012
-2.72848e-012
-1.98952e-012
-1.0516e-012
-4.54747e-013
9.37916e-013
9.37916e-013
5.40012e-013
2.84217e-014
8.81073e-013
1.27898e-012
1.84741e-012
7.67386e-013
6.53699e-013
2.55795e-013
7.67386e-013
1.3074e-012
2.64322e-012
1.87583e-012
1.44951e-012
1.3074e-012
-8.2423e-013
-2.72848e-012
-1.93268e-012
-1.93268e-012
-1.36424e-012
-1.13687e-012
-6.82121e-013
-9.09495e-013
6.82121e-013
2.98428e-012
4.12115e-012
2.67164e-012
3.60956e-012
3.49587e-012
1.44951e-012
1.84741e-012
-1.98952e-013
-5.11591e-013
1.64846e-012
3.97904e-013
9.09495e-013
2.55795e-013
-1.22213e-012
-2.70006e-012
-1.98952e-012
-1.13687e-013
-1.36424e-012
-1.22213e-012
-9.9476e-013
-9.66338e-013
-1.02318e-012
-8.2423e-013
-4.54747e-013
-2.41585e-012
-3.32534e-012
-2.13163e-012
-1.7053e-013
-2.55795e-013
-9.66338e-013
-2.38742e-012
-6.82121e-013
3.41061e-013
-3.12639e-013
9.9476e-013
9.09495e-013
9.09495e-013
-5.68434e-014
-1.16529e-012
-2.64322e-012
-2.01794e-012
-2.21689e-012
-2.58638e-012
-4.54747e-012
-2.81375e-012
-3.49587e-012
-1.53477e-012
-1.7053e-012
-2.72848e-012
-2.18847e-012
-9.9476e-013
1.0516e-012
2.24532e-012
2.10321e-012
4.03588e-012
3.63798e-012
2.30216e-012
1.47793e-012
1.98952e-013
7.67386e-013
1.08002e-012
3.12639e-012
3.09797e-012
2.92744e-012
3.24007e-012
2.70006e-012
2.81375e-012
1.33582e-012
-7.67386e-013
-1.44951e-012
5.40012e-013
7.67386e-013
9.9476e-013
1.93268e-012
6.53699e-013
-1.10845e-012
-2.33058e-012
-2.6148e-012
-2.81375e-012
-2.58638e-012
-2.78533e-012
-1.76215e-012
4.26326e-013
-1.98952e-013
8.81073e-013
-8.2423e-013
-2.84217e-013
5.76961e-012
3.62661e-011
1.84599e-010
8.87439e-010
4.11532e-009
1.85653e-008
8.14908e-008
3.47805e-007
1.44179e-006
5.79751e-006
2.25808e-005
8.50586e-005
0.000309333
0.001084
0.00365256
0.0118053
0.0364977
0.107594
0.301325
0.798238
1.9901
4.64242
10.0709
20.207
37.2695
62.7847
95.8283
132.913
171.089
208.508
243.944
276.599
306.102
331.91
354.998
373.762
389.08
404.234
413.694
419.463
426.527
433.207
434.38
432.058
429.007
430.958
433.352
433.78
433.456
429.872
414.273
372.888
334.535
307.63
289.734
278.741
272.006
267.329
264.164
261.022
257.509
252.87
239.807
198.599
81.3069
23.1646
4.71462
0.817479
0.136651
0.0225562
0.0036885
0.000597777
9.60294e-005
1.5296e-005
2.41695e-006
3.79078e-007
5.90536e-008
9.14335e-009
1.40809e-009
2.15845e-010
3.3026e-011
5.24913e-012
1.07114e-012
5.82645e-013
4.49418e-013
3.606e-013
2.25597e-013
2.41585e-013
6.57252e-014
-3.55271e-015
-6.21725e-014
-1.04805e-013
-1.1191e-013
-1.04805e-013
-4.9738e-014
-4.79616e-014
3.55271e-015
-1.27898e-013
-1.24345e-013
-1.15463e-013
-1.01252e-013
2.84217e-014
3.37508e-014
-4.44089e-014
0
1.24345e-013
2.18492e-013
2.4869e-013
1.1191e-013
7.99361e-014
5.68434e-014
8.70415e-014
-4.79616e-014
-2.84217e-014
-5.32907e-015
-1.29674e-013
-1.58096e-013
-1.66978e-013
-3.39284e-013
-3.57048e-013
-8.70415e-014
-3.19744e-014
-1.24345e-014
-2.16716e-013
-1.36779e-013
-1.33227e-013
-1.5099e-013
-1.66978e-013
-1.19016e-013
-6.21725e-014
-9.9476e-014
-3.30402e-013
-2.75335e-013
-6.57252e-014
-1.82965e-013
-5.68434e-014
3.90799e-014
1.35003e-013
1.7053e-013
1.36779e-013
2.18492e-013
1.59872e-013
1.42109e-013
1.42109e-013
1.42109e-013
8.52651e-014
8.52651e-014
1.13687e-013
8.52651e-014
8.52651e-014
8.52651e-014
1.98952e-013
8.52651e-014
1.13687e-013
1.13687e-013
1.13687e-013
1.13687e-013
8.52651e-014
1.42109e-013
1.13687e-013
8.52651e-014
1.13687e-013
8.52651e-014
1.13687e-013
5.68434e-014
8.52651e-014
1.13687e-013
8.52651e-014
5.68434e-014
5.68434e-014
8.52651e-014
8.52651e-014
1.13687e-013
8.52651e-014
5.68434e-014
5.68434e-014
2.84217e-014
0
2.84217e-014
5.68434e-014
8.52651e-014
5.68434e-014
0
2.84217e-014
5.68434e-014
5.68434e-014
8.52651e-014
2.84217e-014
5.68434e-014
2.84217e-014
5.68434e-014
2.84217e-014
2.84217e-014
-2.84217e-014
-2.84217e-014
-2.84217e-014
0
2.84217e-014
2.84217e-014
8.52651e-014
2.84217e-014
2.84217e-014
2.84217e-014
5.68434e-014
5.68434e-014
5.68434e-014
5.68434e-014
1.13687e-013
1.13687e-013
1.13687e-013
1.42109e-013
8.52651e-014
1.42109e-013
1.42109e-013
1.42109e-013
1.42109e-013
1.42109e-013
1.7053e-013
1.7053e-013
1.7053e-013
1.42109e-013
1.13687e-013
1.42109e-013
8.52651e-014
1.13687e-013
1.13687e-013
8.52651e-014
1.42109e-013
1.13687e-013
1.42109e-013
1.13687e-013
1.42109e-013
1.7053e-013
1.98952e-013
2.27374e-013
2.27374e-013
1.98952e-013
2.55795e-013
1.98952e-013
1.98952e-013
1.7053e-013
1.91847e-013
5.9508e-014
-2.08167e-017
6.70575e-014
-5.37764e-017
5.06262e-014
-5.50775e-017
4.88498e-014
-4.46691e-017
3.28626e-014
-5.72459e-017
3.81917e-014
-2.51535e-017
5.68434e-014
-2.73219e-017
7.28306e-014
-4.29344e-017
5.10703e-014
-8.1532e-017
4.84057e-014
-8.93383e-017
4.75175e-014
-1.26635e-016
2.88658e-014
-1.84748e-016
2.26485e-014
-1.98626e-016
3.55271e-015
-2.16407e-016
-1.90958e-014
-2.20744e-016
-7.10543e-015
-1.92121e-016
-4.88498e-015
-1.99927e-016
-6.66134e-015
-1.661e-016
-1.59872e-014
-1.76074e-016
-8.43769e-015
-1.64365e-016
8.88178e-015
-1.47018e-016
7.10543e-015
-1.77809e-016
7.10543e-015
-1.14058e-016
-1.19904e-014
-2.09468e-016
-6.21725e-015
-9.75782e-017
-6.21725e-015
-2.07299e-016
-4.44089e-016
-1.31405e-016
7.54952e-015
-1.34441e-016
-1.33227e-015
-7.41594e-017
0
-1.25767e-016
-1.33227e-015
-1.25334e-016
-1.33227e-015
-1.42247e-016
-8.88178e-016
-1.76942e-016
1.77636e-015
-2.27682e-016
3.9968e-015
-1.79978e-016
-8.88178e-016
-2.15106e-016
-1.33227e-015
-1.59595e-016
-8.43769e-015
-1.50487e-016
-7.54952e-015
-1.50054e-016
1.19904e-014
-1.63064e-016
7.54952e-015
-1.63931e-016
-2.22045e-015
-1.45717e-016
1.33227e-015
-1.84314e-016
-3.10862e-015
-1.31405e-016
4.44089e-016
-1.67401e-016
1.06581e-014
-1.57426e-016
1.73195e-014
-1.77375e-016
1.9984e-014
-1.83447e-016
1.9984e-014
-1.93855e-016
3.9968e-015
-2.23779e-016
-2.13163e-014
-2.16407e-016
-6.66134e-015
-1.89952e-016
-9.32587e-015
-1.83447e-016
-7.54952e-015
-1.86483e-016
4.44089e-016
-2.87964e-016
-4.44089e-015
-2.11203e-016
-4.44089e-015
-2.54571e-016
2.22045e-015
-2.34621e-016
-7.54952e-015
-2.02529e-016
-8.43769e-015
-2.09902e-016
-4.88498e-015
-2.086e-016
1.33227e-015
-1.93855e-016
0
-1.96891e-016
-7.10543e-015
-2.2855e-016
5.32907e-015
-2.15539e-016
8.88178e-016
-1.97325e-016
-2.22045e-015
-1.661e-016
1.33227e-015
-2.03396e-016
-6.21725e-015
-1.47451e-016
-6.21725e-015
-1.34875e-016
8.88178e-015
-1.25334e-016
8.88178e-016
-1.58727e-016
-1.77636e-015
-9.19403e-017
3.9968e-015
-1.24466e-016
7.99361e-015
-1.7087e-016
-6.21725e-015
-1.19262e-016
1.42109e-014
-1.38778e-016
7.99361e-015
-1.30972e-016
-2.66454e-015
-1.50487e-016
7.10543e-015
-1.2013e-016
3.10862e-015
-1.24466e-016
-5.77316e-015
-1.37043e-016
-3.10862e-015
-1.27068e-016
-1.5099e-014
-1.55258e-016
-1.37668e-014
-1.21431e-016
4.44089e-015
-1.37477e-016
1.77636e-015
-1.65666e-016
8.88178e-016
-1.27502e-016
-7.99361e-015
-1.32273e-016
7.99361e-015
-1.5786e-016
1.77636e-015
-1.76508e-016
-2.22045e-015
-1.34441e-016
1.33227e-015
-1.14058e-016
-5.32907e-015
-7.37257e-017
-8.88178e-016
-8.93383e-017
7.99361e-015
-1.50054e-016
8.88178e-015
-1.66533e-016
1.02141e-014
-1.97758e-016
0
-1.96457e-016
-6.21725e-015
-2.06432e-016
-1.11022e-014
-2.10769e-016
8.43769e-015
-2.00794e-016
7.10543e-015
-2.28116e-016
3.9968e-015
-2.22478e-016
9.76996e-015
-3.38705e-016
-4.88498e-015
-2.4503e-016
-1.02141e-014
-3.07046e-016
-6.66134e-015
-2.52402e-016
-9.76996e-015
-2.73653e-016
-8.88178e-015
-2.23346e-016
-9.76996e-015
-2.56305e-016
-7.54952e-015
-2.498e-016
3.9968e-015
-2.31586e-016
2.22045e-015
-2.23346e-016
1.06581e-014
-2.09902e-016
8.88178e-015
-2.48933e-016
-2.22045e-015
-2.70183e-016
1.33227e-015
-2.58907e-016
-6.21725e-015
-2.3679e-016
-6.21725e-015
-2.56739e-016
7.54952e-015
-2.21177e-016
7.10543e-015
-2.25514e-016
8.88178e-015
-2.25948e-016
7.54952e-015
-2.17708e-016
1.77636e-014
-1.83013e-016
4.44089e-015
-2.50668e-016
-3.55271e-015
-2.086e-016
-4.44089e-016
-2.22912e-016
1.77636e-015
-2.05565e-016
-8.88178e-016
-2.90133e-016
-1.15463e-014
-1.77809e-016
-6.66134e-015
-1.68268e-016
-7.99361e-015
-1.46584e-016
-5.32907e-015
-1.4138e-016
-4.88498e-015
-1.07119e-016
5.32907e-015
-2.02529e-016
3.10862e-015
-1.63931e-016
-4.88498e-015
-1.80845e-016
-9.32587e-015
-1.97758e-016
7.10543e-015
-1.86483e-016
4.44089e-016
-1.8735e-016
-2.22045e-015
-1.51355e-016
-8.88178e-016
-1.56992e-016
-1.19904e-014
-1.01915e-016
-9.76996e-015
-7.80626e-017
-4.88498e-015
-8.45678e-017
-6.21725e-015
-6.98226e-017
-2.66454e-015
-4.25007e-017
-6.21725e-015
-7.11237e-017
-3.81639e-017
2.4869e-013
2.27374e-013
2.41585e-013
2.0961e-013
2.16716e-013
2.16716e-013
2.34479e-013
2.91323e-013
1.77636e-013
8.17124e-014
4.9738e-014
7.10543e-015
-7.10543e-015
-1.77636e-014
2.84217e-014
1.20792e-013
1.3145e-013
9.23706e-014
1.06581e-014
-1.06581e-014
4.61853e-014
-3.19744e-014
-1.24345e-013
-8.17124e-014
-7.10543e-015
3.19744e-014
7.10543e-014
-2.84217e-014
-6.39488e-014
-8.52651e-014
-9.23706e-014
-8.88178e-014
-4.26326e-014
-7.10543e-015
7.10543e-014
8.17124e-014
7.4607e-014
7.10543e-014
0
-7.81597e-014
-5.68434e-014
1.77636e-014
6.03961e-014
8.17124e-014
1.03029e-013
3.90799e-014
-7.10543e-015
-4.61853e-014
-1.77636e-014
-5.68434e-014
-5.68434e-014
-2.4869e-014
-1.35003e-013
-1.7053e-013
-7.10543e-014
-7.10543e-014
1.42109e-014
7.10543e-015
7.10543e-015
-7.81597e-014
-6.03961e-014
0
-3.90799e-014
3.55271e-014
4.61853e-014
7.4607e-014
8.88178e-014
9.59233e-014
2.13163e-013
2.16716e-013
1.35003e-013
4.26326e-014
-3.55271e-015
-4.26326e-014
4.26326e-014
2.84217e-014
2.13163e-014
8.52651e-014
1.59872e-013
1.77636e-014
-6.39488e-014
-1.06581e-014
-1.27898e-013
-8.52651e-014
-1.1724e-013
-3.19744e-014
4.9738e-014
3.55271e-015
-1.49214e-013
-8.17124e-014
6.03961e-014
2.4869e-014
-2.13163e-014
-1.49214e-013
-9.59233e-014
-1.77636e-014
-3.55271e-015
-6.75016e-014
-4.26326e-014
-5.32907e-014
-7.4607e-014
-1.42109e-013
-1.88294e-013
-1.24345e-013
-1.03029e-013
-1.06581e-014
6.03961e-014
0
-4.26326e-014
-8.52651e-014
-4.61853e-014
-1.77636e-014
7.10543e-014
8.17124e-014
-1.42109e-014
2.13163e-014
3.19744e-014
4.9738e-014
3.19744e-014
1.42109e-013
9.59233e-014
4.61853e-014
1.56319e-013
6.03961e-014
2.4869e-014
2.13163e-014
-6.75016e-014
3.90799e-014
7.10543e-014
1.95399e-013
1.59872e-013
1.03029e-013
4.26326e-014
-6.03961e-014
-2.52243e-013
-1.3145e-013
-1.03029e-013
1.06581e-014
1.42109e-013
-1.42109e-014
3.55271e-014
1.35003e-013
1.81188e-013
1.98952e-013
1.95399e-013
1.1724e-013
6.39488e-014
7.10543e-014
6.75016e-014
)
;

boundaryField
{
    inlet
    {
        type            calculated;
        value           nonuniform List<scalar> 2(1.14087e-012 2.61934e-014);
    }
    outlet
    {
        type            calculated;
        value           nonuniform List<scalar> 2(5.3357e-014 1.21266e-015);
    }
    bottom
    {
        type            symmetryPlane;
        value           uniform 0;
    }
    top
    {
        type            symmetryPlane;
        value           uniform 0;
    }
    obstacle
    {
        type            calculated;
        value           nonuniform List<scalar> 
102
(
-7.63976e-015
-5.94203e-014
1.61951e-030
2.7133e-044
2.92006e-058
2.59599e-072
1.8718e-086
1.28049e-100
7.52885e-115
4.24282e-129
2.06519e-143
7.59229e-158
2.82787e-172
9.08065e-187
2.57338e-201
6.32252e-216
1.37043e-230
2.41313e-245
5.63858e-260
8.95661e-275
9.36333e-290
1.14945e-304
4.94066e-320
0
0
0
0
0
0
0
0
0
0
0
0
0
0
0
0
0
0
0
0
0
0
0
0
0
0
0
0
0
0
0
0
0
0
0
0
0
0
0
0
0
0
0
0
0
0
0
0
0
0
0
0
0
0
0
0
0
0
0
0
-7.16085e-306
-2.67606e-290
-3.37775e-275
-1.83904e-259
-2.28795e-244
-3.18649e-229
-6.10815e-214
-6.1611e-199
-3.95354e-184
-2.27148e-169
-1.19997e-154
-5.55014e-140
-4.08001e-125
-6.96132e-110
-1.03624e-094
-8.89834e-080
-1.00471e-064
-1.54282e-049
-2.9614e-034
)
;
    }
    defaultFaces
    {
        type            empty;
        value           nonuniform 0();
    }
}


// ************************************************************************* //
