/*--------------------------------*- C++ -*----------------------------------*\
| =========                 |                                                 |
| \\      /  F ield         | OpenFOAM: The Open Source CFD Toolbox           |
|  \\    /   O peration     | Version:  5.x                                   |
|   \\  /    A nd           | Web:      www.OpenFOAM.org                      |
|    \\/     M anipulation  |                                                 |
\*---------------------------------------------------------------------------*/
/*   Windows 32 and 64 bit porting by blueCAPE: http://www.bluecape.com.pt   *\
|  Based on Windows porting (2.0.x v4) by Symscape: http://www.symscape.com   |
\*---------------------------------------------------------------------------*/
FoamFile
{
    version     2.0;
    format      ascii;
    class       volScalarField;
    location    "0.003";
    object      mag(U);
}
// * * * * * * * * * * * * * * * * * * * * * * * * * * * * * * * * * * * * * //

dimensions      [0 1 -1 0 0 0 0];

internalField   nonuniform List<scalar> 
100
(
2.58699
20.931
97.5246
243.663
254.218
103.243
2.33017
18.6036
93.459
246.087
264.503
119.172
2.26818
17.8995
92.0848
238.637
268.219
134.296
2.20141
17.241
91.0615
239.692
272.133
141.452
2.16135
16.7777
90.269
237.899
274.918
153.516
2.08691
16.0899
89.6467
241.504
277.501
175.081
2.1963
17.3772
91.3194
244.61
277.082
165.069
2.07295
16.1669
89.3009
244.308
281.975
171.777
2.15073
17.0027
90.3491
245.845
280.166
164.778
2.15034
17.0057
90.8523
246.405
278.896
160.054
106.48
68.2524
97.334
61.4909
104.597
63.9647
97.3297
58.324
93.1455
55.5703
2.21682
1.34139
0.0298277
7.2957
1.73153
0.0259746
11.9408
2.45418
0.0655241
16.8474
3.25629
0.111148
20.3813
3.89643
0.155928
38.8217
5.86728
0.256692
33.4393
6.49003
0.27508
32.8142
6.8486
0.294192
29.4708
6.24947
0.266599
28.01
5.96912
0.256057
)
;

boundaryField
{
    inlet
    {
        type            calculated;
        value           nonuniform List<scalar> 10(2.08691 2.1963 2.07295 2.15073 2.15034 2.58699 2.33017 2.26818 2.20141 2.16135);
    }
    outlet
    {
        type            calculated;
        value           nonuniform List<scalar> 10(0.256692 0.27508 0.294192 0.266599 0.256057 0.0298277 0.0259746 0.0655241 0.111148 0.155928);
    }
    bottom
    {
        type            symmetryPlane;
    }
    top
    {
        type            symmetryPlane;
    }
    obstacle
    {
        type            calculated;
        value           nonuniform List<scalar> 
12
(
103.243
119.172
134.296
141.452
153.516
2.21682
7.2957
11.9408
16.8474
20.3813
106.48
68.2524
)
;
    }
    defaultFaces
    {
        type            empty;
    }
}


// ************************************************************************* //
