/*--------------------------------*- C++ -*----------------------------------*\
| =========                 |                                                 |
| \\      /  F ield         | OpenFOAM: The Open Source CFD Toolbox           |
|  \\    /   O peration     | Version:  5.x                                   |
|   \\  /    A nd           | Web:      www.OpenFOAM.org                      |
|    \\/     M anipulation  |                                                 |
\*---------------------------------------------------------------------------*/
/*   Windows 32 and 64 bit porting by blueCAPE: http://www.bluecape.com.pt   *\
|  Based on Windows porting (2.0.x v4) by Symscape: http://www.symscape.com   |
\*---------------------------------------------------------------------------*/
FoamFile
{
    version     2.0;
    format      ascii;
    class       volScalarField;
    location    "0.003";
    object      p;
}
// * * * * * * * * * * * * * * * * * * * * * * * * * * * * * * * * * * * * * //

dimensions      [1 -1 -2 0 0 0 0];

internalField   nonuniform List<scalar> 
100
(
99314.3
90271.9
66806
38083.7
21568.5
14704.3
99398.7
90864.7
68596.8
40342.3
23499.5
15551.9
99429.1
91036.2
69017.3
40849.9
24162.3
15873.8
99455.3
91216.2
69579
41523.7
24734.4
16160.6
99472.7
91325.8
69871.3
41935.4
25145.1
16374.2
99502.9
91532.3
70491.3
42696
25756.8
16689
99463.3
91125.5
68795.5
40630.1
24158.6
16431.7
99517.3
91763.4
71703.6
44602.6
26548.7
17712.6
99482.9
91383.6
69802.4
43943.8
26048.4
17417.2
99484.2
91425.1
70174.1
43957.3
25512.6
17126.9
13900.7
12767.1
13869.6
12790.1
14331.2
13018.9
14070.5
12804.9
13876.2
12657.1
10250.8
9993.09
10003.7
10371.5
10020.4
10004
10520.1
10054.1
10004.8
10654
10085
10005.6
10783.5
10116.5
10006.6
11038.9
10171.3
10008.3
11304.9
10192.6
10009.6
11472.7
10217
10010.6
11366.6
10198.3
10009.9
11297
10189.2
10009.6
)
;

boundaryField
{
    inlet
    {
        type            zeroGradient;
    }
    outlet
    {
        type            zeroGradient;
    }
    bottom
    {
        type            symmetryPlane;
    }
    top
    {
        type            symmetryPlane;
    }
    obstacle
    {
        type            zeroGradient;
    }
    defaultFaces
    {
        type            empty;
    }
}


// ************************************************************************* //
