/*--------------------------------*- C++ -*----------------------------------*\
| =========                 |                                                 |
| \\      /  F ield         | OpenFOAM: The Open Source CFD Toolbox           |
|  \\    /   O peration     | Version:  5.x                                   |
|   \\  /    A nd           | Web:      www.OpenFOAM.org                      |
|    \\/     M anipulation  |                                                 |
\*---------------------------------------------------------------------------*/
/*   Windows 32 and 64 bit porting by blueCAPE: http://www.bluecape.com.pt   *\
|  Based on Windows porting (2.0.x v4) by Symscape: http://www.symscape.com   |
\*---------------------------------------------------------------------------*/
FoamFile
{
    version     2.0;
    format      ascii;
    class       surfaceScalarField;
    location    "0.003";
    object      phi;
}
// * * * * * * * * * * * * * * * * * * * * * * * * * * * * * * * * * * * * * //

dimensions      [1 0 -1 0 0 0 0];

internalField   nonuniform List<scalar> 
174
(
2.91142
-0.261149
16.1565
-0.881811
25.6115
1.7165
14.6102
1.66945
6.02919
-0.140982
-0.647876
1.59297
-0.228714
9.12624
-0.412705
15.2288
2.77462
9.82319
1.33778
3.83457
0.0761293
-1.24402
1.05032
-0.230103
6.51675
-0.600312
10.9283
3.16574
7.34872
0.835357
3.04328
0.63847
-1.41359
0.657534
-0.208724
4.11143
-0.568744
7.00376
3.33101
4.87844
0.236515
2.0332
0.985143
-1.5255
0.430108
-0.194555
2.80197
-0.62254
4.81455
3.39669
3.41633
-0.228262
1.48648
1.27575
-1.58387
1.68815
-0.0703566
11.3536
-0.593407
20.199
2.89904
13.4014
-1.3495
6.40941
1.34545
-0.676981
3.01583
3.29101
0.0168538
20.7513
-0.243354
35.5192
2.67753
22.7465
-1.74999
10.6865
2.00409
0.519527
4.91612
5.42157
-0.0258201
35.6218
-0.635727
65.6732
-2.67188
44.7719
-1.5935
20.7498
1.93052
0.775286
9.67701
10.1933
0.0684723
65.0069
0.712751
115.413
3.66331
77.3727
4.77277
35.464
2.66817
0.824409
15.9465
18.1662
116.037
206.587
136.211
61.225
27.0142
2.08269
-0.0265141
0.0286039
1.37968
3.40769
0.0852369
0.0329202
2.17329
6.54909
0.149043
0.10223
3.89333
10.6182
0.109198
0.0539939
6.18363
17.9107
10.392
0.0180558
-0.193827
0.0184847
0.00293984
-0.00780689
-0.025994
-0.392753
0.0141457
-0.0786393
-0.0134573
-0.0365117
-0.577961
0.0122222
-0.183611
-0.0176298
-0.0334669
-0.731089
0.00911898
-0.282712
-0.0215659
0.00248447
-0.834928
0.00766864
-0.338401
-0.0241629
0.494439
-0.401735
0.0588378
-0.188146
-0.020474
0.843548
-0.107963
0.126166
-0.0427763
-0.00626682
1.5092
0.0386426
0.234858
0.0133692
0.00100308
2.39076
0.0256899
0.378749
0.00918145
0.000933003
4.03029
0.643921
)
;

boundaryField
{
    inlet
    {
        type            calculated;
        value           nonuniform List<scalar> 10(-0.303916 -0.569851 -0.958634 -1.76729 -3.14415 -0.446535 -0.269033 -0.174947 -0.113446 -0.0743965);
    }
    outlet
    {
        type            calculated;
        value           nonuniform List<scalar> 10(0.00382441 0.00759426 0.0142845 0.0229595 0.0393085 -0.000375605 0.000138953 0.000493766 0.000577477 0.000560719);
    }
    bottom
    {
        type            symmetryPlane;
        value           uniform 0;
    }
    top
    {
        type            symmetryPlane;
        value           uniform 0;
    }
    obstacle
    {
        type            calculated;
        value           nonuniform List<scalar> 
12
(
3.53651
2.16224
1.8682
1.24081
0.94755
0.0153529
0.0727961
0.0856644
0.0768875
0.0173276
0.174228
-0.000278518
)
;
    }
    defaultFaces
    {
        type            empty;
        value           nonuniform 0();
    }
}


// ************************************************************************* //
