/*--------------------------------*- C++ -*----------------------------------*\
| =========                 |                                                 |
| \\      /  F ield         | OpenFOAM: The Open Source CFD Toolbox           |
|  \\    /   O peration     | Version:  5.x                                   |
|   \\  /    A nd           | Web:      www.OpenFOAM.org                      |
|    \\/     M anipulation  |                                                 |
\*---------------------------------------------------------------------------*/
/*   Windows 32 and 64 bit porting by blueCAPE: http://www.bluecape.com.pt   *\
|  Based on Windows porting (2.0.x v4) by Symscape: http://www.symscape.com   |
\*---------------------------------------------------------------------------*/
FoamFile
{
    version     2.0;
    format      ascii;
    class       volScalarField;
    location    "0.003";
    object      T;
}
// * * * * * * * * * * * * * * * * * * * * * * * * * * * * * * * * * * * * * //

dimensions      [0 0 0 1 0 0 0];

internalField   nonuniform List<scalar> 
100
(
347.727
338.181
299.024
363.03
366.786
322.999
347.816
338.866
300.186
366.421
369.101
327.373
347.847
339.08
300.404
366.468
374.043
333.207
347.875
339.284
300.876
368.61
375.759
335.061
347.893
339.419
300.913
369.641
379.901
338.693
347.924
339.626
302.809
370.268
376.899
336.465
347.883
339.161
301.607
365.32
370.009
334.159
347.939
339.885
304.135
375.291
381.232
342.053
347.903
339.454
302.215
374.334
379.801
339.905
347.904
339.499
302.567
374.307
377.753
337.621
306.196
299.097
306.118
299.259
309.031
300.82
307.482
299.385
306.24
298.369
280.731
278.688
278.775
281.661
278.907
278.778
282.797
279.175
278.784
283.822
279.416
278.791
284.941
279.656
278.798
287.208
280.152
278.812
288.961
280.323
278.823
290.178
280.515
278.831
289.358
280.357
278.825
288.829
280.282
278.822
)
;

boundaryField
{
    inlet
    {
        type            zeroGradient;
    }
    outlet
    {
        type            zeroGradient;
    }
    bottom
    {
        type            symmetryPlane;
    }
    top
    {
        type            symmetryPlane;
    }
    obstacle
    {
        type            zeroGradient;
    }
    defaultFaces
    {
        type            empty;
    }
}


// ************************************************************************* //
