/*--------------------------------*- C++ -*----------------------------------*\
| =========                 |                                                 |
| \\      /  F ield         | OpenFOAM: The Open Source CFD Toolbox           |
|  \\    /   O peration     | Version:  5.x                                   |
|   \\  /    A nd           | Web:      www.OpenFOAM.org                      |
|    \\/     M anipulation  |                                                 |
\*---------------------------------------------------------------------------*/
/*   Windows 32 and 64 bit porting by blueCAPE: http://www.bluecape.com.pt   *\
|  Based on Windows porting (2.0.x v4) by Symscape: http://www.symscape.com   |
\*---------------------------------------------------------------------------*/
FoamFile
{
    version     2.0;
    format      ascii;
    class       volVectorField;
    location    "0.003";
    object      U;
}
// * * * * * * * * * * * * * * * * * * * * * * * * * * * * * * * * * * * * * //

dimensions      [0 1 -1 0 0 0 0];

internalField   nonuniform List<vector> 
100
(
(2.57251 0.273288 0)
(20.692 3.15428 0)
(95.8361 18.0685 0)
(239.607 44.2712 0)
(249.646 47.9962 0)
(101.403 19.4061 0)
(2.32796 -0.101418 0)
(18.5581 -1.29953 0)
(93.2319 -6.51125 -4.40892e-018)
(245.654 -14.5911 1.24896e-017)
(263.835 -18.7886 0)
(118.468 -12.94 3.27421e-017)
(2.26703 0.0724104 0)
(17.8583 1.21361 0)
(91.6966 8.44632 0)
(238.017 17.1877 0)
(267.491 19.7401 0)
(134.283 1.85911 1.2327e-017)
(2.20136 -0.0155534 0)
(17.239 -0.262134 -1.16819e-018)
(91.0614 -0.141082 1.84981e-018)
(239.68 -2.35129 0)
(272.132 -0.617382 0)
(141.215 -8.18805 9.20542e-018)
(2.16078 0.0495097 -3.61253e-019)
(16.7649 0.657366 5.27069e-019)
(90.1087 5.3781 0)
(237.746 8.51488 -3.17221e-018)
(274.472 15.6411 7.3294e-018)
(153.505 -1.84234 6.83129e-018)
(2.08278 -0.131166 0)
(16.0296 -1.39168 0)
(89.5121 -4.90937 0)
(241.022 -15.2419 0)
(277.155 -13.8597 0)
(174.248 -17.0566 0)
(2.19504 0.0744141 0)
(17.356 0.85776 0)
(90.9686 7.99669 0)
(244.44 9.11833 0)
(276.226 21.7589 0)
(164.737 10.465 0)
(2.07239 -0.0482217 0)
(16.1436 -0.868419 0)
(89.1095 -5.84394 0)
(244.024 -11.7802 0)
(281.959 -3.09417 0)
(171.774 -0.991825 0)
(2.15049 0.0325896 0)
(16.9957 0.488801 0)
(90.2656 3.88257 0)
(245.639 10.0467 0)
(279.886 12.5221 0)
(164.613 7.36751 0)
(2.15034 0.00057638 0)
(17.0057 -7.50517e-005 0)
(90.8523 0.0206352 0)
(246.397 1.98219 0)
(278.88 3.03224 0)
(160.045 1.65615 0)
(106.392 -4.33487 0)
(68.2524 -0.0581231 0)
(97.2096 4.92077 0)
(61.4704 1.58518 0)
(104.589 1.24479 0)
(63.9463 1.53099 0)
(97.2377 4.2318 0)
(58.2773 2.33561 0)
(93.1415 0.87064 0)
(55.5684 0.459831 0)
(1.20343 -1.86173 1.12134e-016)
(1.18699 0.624798 -3.6133e-017)
(-0.019725 -0.0223744 0)
(1.72146 -7.0897 8.10761e-017)
(1.73065 0.0553496 1.2805e-017)
(0.014666 -0.021438 -4.05585e-018)
(2.4226 -11.6925 0)
(2.43104 -0.336209 0)
(0.0637876 -0.014985 0)
(3.84631 -16.4025 4.20486e-017)
(3.08479 -1.04282 -7.17434e-018)
(0.108698 -0.0232083 0)
(11.1554 -17.0574 1.52312e-017)
(3.72648 -1.13821 0)
(0.155589 -0.0102787 0)
(36.6671 -12.7534 0)
(5.29477 -2.52793 0)
(0.245062 -0.0763897 0)
(33.1631 -4.28874 0)
(6.47336 -0.464843 0)
(0.273983 -0.0245441 0)
(32.8141 0.0238718 0)
(6.84855 -0.0264757 0)
(0.294183 -0.00224298 0)
(29.4577 0.880839 0)
(6.24837 0.117193 0)
(0.266571 0.00384149 0)
(28.0095 0.177984 0)
(5.96908 0.0207363 0)
(0.256056 0.00073222 0)
)
;

boundaryField
{
    inlet
    {
        type            zeroGradient;
    }
    outlet
    {
        type            zeroGradient;
    }
    bottom
    {
        type            symmetryPlane;
    }
    top
    {
        type            symmetryPlane;
    }
    obstacle
    {
        type            zeroGradient;
    }
    defaultFaces
    {
        type            empty;
    }
}


// ************************************************************************* //
