/*--------------------------------*- C++ -*----------------------------------*\
| =========                 |                                                 |
| \\      /  F ield         | OpenFOAM: The Open Source CFD Toolbox           |
|  \\    /   O peration     | Version:  5.x                                   |
|   \\  /    A nd           | Web:      www.OpenFOAM.org                      |
|    \\/     M anipulation  |                                                 |
\*---------------------------------------------------------------------------*/
/*   Windows 32 and 64 bit porting by blueCAPE: http://www.bluecape.com.pt   *\
|  Based on Windows porting (2.0.x v4) by Symscape: http://www.symscape.com   |
\*---------------------------------------------------------------------------*/
FoamFile
{
    version     2.0;
    format      ascii;
    class       volScalarField;
    location    "0.01";
    object      T;
}
// * * * * * * * * * * * * * * * * * * * * * * * * * * * * * * * * * * * * * //

dimensions      [0 0 0 1 0 0 0];

internalField   nonuniform List<scalar> 
1000
(
348.432
348.432
348.432
348.432
348.432
348.432
348.432
348.432
348.432
348.432
348.432
348.432
348.432
348.432
348.432
348.432
348.432
348.432
348.432
348.432
348.432
348.432
348.432
348.432
348.431
348.431
348.43
348.429
348.427
348.424
348.42
348.413
348.403
348.389
348.368
348.338
348.296
348.24
348.164
348.065
347.939
347.78
347.585
347.351
347.075
346.758
346.398
345.998
345.56
345.09
344.589
344.062
343.512
342.942
342.356
341.755
341.141
340.517
339.883
339.241
338.592
337.936
337.275
336.61
335.939
335.265
334.587
333.906
333.222
332.535
331.845
331.154
330.46
329.764
329.066
328.367
327.666
326.964
326.261
325.556
324.85
324.144
323.436
322.728
322.019
321.309
320.599
319.889
319.178
318.467
317.756
317.045
316.333
315.622
314.91
314.199
313.488
312.777
312.066
311.356
310.645
309.936
309.226
308.517
307.809
307.101
306.393
305.686
304.98
304.274
303.569
302.864
302.16
301.457
300.755
300.053
299.352
298.652
297.953
297.254
296.557
295.86
295.164
294.469
293.776
293.08
292.393
291.691
291.022
290.293
289.673
288.878
288.347
287.46
287.008
286.1
285.591
284.832
284.122
283.552
282.759
282.136
281.499
280.742
280.126
279.474
278.741
278.112
277.473
276.755
276.107
275.483
274.79
274.12
273.498
272.843
272.162
271.522
270.899
270.239
269.578
268.953
268.329
267.68
267.035
266.418
265.804
265.17
264.539
263.93
263.33
262.719
262.103
261.505
260.921
260.337
259.747
259.164
258.599
258.045
257.49
256.936
256.395
255.872
255.362
254.855
254.355
253.871
253.407
252.961
252.526
252.102
251.697
251.316
250.96
250.622
250.301
250
249.726
249.479
249.257
249.057
248.874
248.712
248.576
248.467
248.374
248.291
248.223
248.171
248.131
248.104
248.086
248.069
248.053
248.044
248.043
248.043
248.043
248.042
248.041
248.041
248.042
248.045
248.048
248.05
248.051
248.052
248.053
248.056
248.061
248.065
248.068
248.071
248.073
248.078
248.084
248.09
248.095
248.099
248.103
248.108
248.116
248.123
248.13
248.135
248.14
248.146
248.154
248.163
248.171
248.177
248.184
248.191
248.2
248.21
248.22
248.228
248.235
248.244
248.256
248.27
248.282
248.292
248.302
248.314
248.329
248.346
248.362
248.378
248.394
248.413
248.435
248.465
248.495
248.532
248.565
248.613
248.657
248.719
248.778
248.853
248.915
248.992
249.053
249.14
249.2
249.292
249.351
249.443
249.483
249.539
249.565
249.62
249.653
249.724
249.766
249.868
249.936
250.135
348.432
348.432
348.432
348.432
348.432
348.432
348.432
348.432
348.432
348.432
348.432
348.432
348.432
348.432
348.432
348.432
348.432
348.432
348.432
348.432
348.432
348.432
348.432
348.432
348.431
348.431
348.43
348.429
348.427
348.424
348.42
348.413
348.403
348.389
348.368
348.338
348.296
348.24
348.164
348.065
347.939
347.78
347.585
347.351
347.075
346.758
346.398
345.998
345.56
345.09
344.589
344.062
343.512
342.942
342.356
341.755
341.141
340.517
339.883
339.241
338.592
337.936
337.275
336.61
335.939
335.265
334.587
333.906
333.222
332.535
331.845
331.154
330.46
329.764
329.066
328.367
327.666
326.964
326.261
325.556
324.85
324.144
323.436
322.728
322.019
321.309
320.599
319.889
319.178
318.467
317.756
317.045
316.333
315.622
314.91
314.199
313.488
312.777
312.066
311.356
310.645
309.936
309.226
308.517
307.809
307.101
306.393
305.686
304.98
304.274
303.569
302.864
302.16
301.457
300.755
300.053
299.352
298.652
297.953
297.254
296.557
295.86
295.164
294.469
293.776
293.08
292.393
291.691
291.022
290.293
289.673
288.878
288.347
287.46
287.008
286.1
285.591
284.832
284.122
283.552
282.759
282.136
281.499
280.742
280.126
279.474
278.741
278.112
277.473
276.755
276.107
275.483
274.79
274.12
273.498
272.843
272.162
271.522
270.899
270.239
269.578
268.953
268.329
267.68
267.035
266.418
265.804
265.17
264.539
263.93
263.33
262.719
262.103
261.505
260.921
260.337
259.747
259.164
258.599
258.045
257.49
256.936
256.395
255.872
255.362
254.855
254.355
253.871
253.407
252.961
252.526
252.102
251.697
251.316
250.96
250.622
250.301
250
249.726
249.479
249.257
249.057
248.874
248.712
248.576
248.467
248.374
248.291
248.223
248.171
248.131
248.104
248.086
248.069
248.053
248.044
248.043
248.043
248.043
248.042
248.041
248.041
248.042
248.045
248.048
248.05
248.051
248.052
248.053
248.056
248.061
248.065
248.069
248.071
248.073
248.078
248.084
248.09
248.095
248.099
248.103
248.108
248.116
248.123
248.13
248.135
248.14
248.146
248.154
248.163
248.171
248.177
248.183
248.191
248.2
248.21
248.22
248.228
248.235
248.244
248.256
248.269
248.282
248.291
248.301
248.313
248.327
248.344
248.359
248.373
248.387
248.401
248.42
248.439
248.463
248.483
248.505
248.53
248.554
248.591
248.621
248.664
248.698
248.733
248.773
248.797
248.846
248.879
248.919
248.959
248.969
248.955
248.917
248.838
248.745
248.623
248.491
248.382
248.279
247.836
247.896
247.827
247.722
247.625
247.542
247.478
247.423
247.379
247.34
247.307
247.275
247.247
247.219
247.193
247.166
247.142
247.116
247.091
247.065
247.041
247.016
246.992
246.966
246.942
246.917
246.894
246.869
246.845
246.821
246.798
246.774
246.752
246.728
246.706
246.682
246.661
246.638
246.617
246.594
246.573
246.55
246.53
246.508
246.488
246.465
246.446
246.424
246.404
246.383
246.364
246.342
246.323
246.302
246.284
246.264
246.246
246.226
246.209
246.191
246.175
246.158
246.143
246.127
246.114
246.1
246.089
246.078
246.069
246.061
246.054
246.049
246.047
246.045
246.046
246.047
246.052
246.059
246.068
246.081
246.093
246.113
246.129
246.156
246.181
246.214
246.248
246.287
246.333
246.378
246.438
246.49
246.564
246.625
246.716
246.789
246.898
246.986
247.116
247.224
247.377
467.766
467.7
467.611
467.509
467.443
467.442
467.457
467.498
467.574
467.673
467.793
467.927
468.065
468.198
468.319
468.426
468.517
468.586
468.628
468.642
468.636
468.612
468.566
468.498
468.392
468.261
468.119
467.982
467.843
467.689
467.5
467.283
467.05
466.83
466.624
466.427
466.206
465.938
465.605
465.224
464.816
464.424
464.068
463.759
463.476
463.188
462.841
462.393
461.802
461.05
460.127
459.047
457.827
456.501
455.092
453.634
452.147
450.652
449.163
447.69
446.241
444.818
443.426
442.066
440.739
439.447
438.19
436.969
435.784
434.635
433.524
432.448
431.409
430.407
429.441
428.51
427.615
426.755
425.93
425.139
424.381
423.659
422.968
422.313
421.691
421.104
420.551
420.032
419.546
419.091
418.665
418.266
417.891
417.537
417.205
416.887
416.587
416.296
416.019
415.75
415.491
415.242
415.001
414.767
414.541
414.324
414.111
413.905
413.703
413.506
413.314
413.124
412.939
412.754
412.574
412.397
412.221
412.05
411.876
411.711
411.543
411.382
411.218
411.061
410.902
410.749
410.594
410.446
410.297
410.152
410.008
409.864
409.723
409.584
409.464
409.362
409.317
409.315
409.335
409.417
409.628
409.969
410.697
411.161
412.143
412.563
413.173
413.352
413.582
413.47
247.847
249.375
251.869
255.41
259.924
265.306
271.41
278.092
285.203
292.606
300.2
307.916
315.686
323.415
330.973
338.217
345.02
351.299
357.013
362.162
366.762
370.839
374.418
377.526
380.191
382.446
384.328
385.878
387.14
388.154
388.96
389.594
390.087
390.467
390.757
390.976
391.139
391.261
391.351
391.418
391.469
391.51
391.544
391.575
391.604
391.633
391.663
391.694
391.725
391.758
391.79
391.822
391.854
391.884
391.912
391.939
391.962
391.982
391.999
392.013
392.025
392.036
392.044
392.048
392.049
392.045
392.033
392.016
392.004
391.997
391.991
391.98
391.957
391.912
391.849
391.772
391.686
391.597
391.503
391.397
391.265
391.094
390.874
390.6
390.279
389.924
389.561
389.216
388.914
388.677
388.514
388.426
388.398
388.406
388.472
388.649
388.876
389.1
389.308
389.49
389.644
389.771
389.872
389.953
390.019
390.072
390.116
390.154
390.188
390.218
390.245
390.271
390.293
390.313
390.33
390.344
390.354
390.36
390.363
390.363
390.359
390.348
390.327
390.301
390.27
390.239
390.202
390.165
390.124
390.085
390.038
389.993
389.944
389.892
389.842
389.804
389.785
389.77
389.776
389.807
389.891
389.991
390.198
390.332
390.469
390.558
390.617
390.605
390.596
390.496
)
;

boundaryField
{
    inlet
    {
        type            zeroGradient;
    }
    outlet
    {
        type            zeroGradient;
    }
    bottom
    {
        type            symmetryPlane;
    }
    top
    {
        type            symmetryPlane;
    }
    obstacle
    {
        type            zeroGradient;
    }
    defaultFaces
    {
        type            empty;
    }
}


// ************************************************************************* //
