/*--------------------------------*- C++ -*----------------------------------*\
| =========                 |                                                 |
| \\      /  F ield         | OpenFOAM: The Open Source CFD Toolbox           |
|  \\    /   O peration     | Version:  5.x                                   |
|   \\  /    A nd           | Web:      www.OpenFOAM.org                      |
|    \\/     M anipulation  |                                                 |
\*---------------------------------------------------------------------------*/
/*   Windows 32 and 64 bit porting by blueCAPE: http://www.bluecape.com.pt   *\
|  Based on Windows porting (2.0.x v4) by Symscape: http://www.symscape.com   |
\*---------------------------------------------------------------------------*/
FoamFile
{
    version     2.0;
    format      ascii;
    class       volScalarField;
    location    "0.01";
    object      mag(U);
}
// * * * * * * * * * * * * * * * * * * * * * * * * * * * * * * * * * * * * * //

dimensions      [0 1 -1 0 0 0 0];

internalField   nonuniform List<scalar> 
100
(
31.1613
102.996
178.447
225.705
253.129
264.009
30.2158
99.8867
177.923
231.354
264.332
278.807
30.089
99.0837
175.24
226.097
258.624
272.186
29.8235
98.1724
175.038
227.519
260.108
274.42
29.7053
97.6226
174.083
226.306
259.773
274.327
29.2799
96.2628
173.356
227.41
261.643
291.916
30.216
99.3297
176.667
229.58
262.282
290.021
28.9185
95.4328
172.448
227.395
261.648
288.801
30.6182
101.054
178.531
231.9
263.517
285.55
29.3054
96.1546
172.138
226.304
259.01
283.277
303.35
309.877
300.113
307.59
299.037
308.197
293.374
300.195
293.034
302.621
182.402
187.39
164.071
266.524
261.002
205.174
320.521
317.926
249.321
341.135
341.097
271.017
345.232
347.779
278.202
312.977
328.105
275.312
312.476
327.622
272.301
315.28
332.032
274.316
305.417
318.764
263.768
310.736
332.467
289.555
)
;

boundaryField
{
    inlet
    {
        type            calculated;
        value           nonuniform List<scalar> 10(29.2799 30.216 28.9185 30.6182 29.3054 31.1613 30.2158 30.089 29.8235 29.7053);
    }
    outlet
    {
        type            calculated;
        value           nonuniform List<scalar> 10(275.312 272.301 274.316 263.768 289.555 164.071 205.174 249.321 271.017 278.202);
    }
    bottom
    {
        type            symmetryPlane;
    }
    top
    {
        type            symmetryPlane;
    }
    obstacle
    {
        type            calculated;
        value           nonuniform List<scalar> 
12
(
264.009
278.807
272.186
274.42
274.327
182.402
266.524
320.521
341.135
345.232
303.35
309.877
)
;
    }
    defaultFaces
    {
        type            empty;
    }
}


// ************************************************************************* //
