/*--------------------------------*- C++ -*----------------------------------*\
| =========                 |                                                 |
| \\      /  F ield         | OpenFOAM: The Open Source CFD Toolbox           |
|  \\    /   O peration     | Version:  5.x                                   |
|   \\  /    A nd           | Web:      www.OpenFOAM.org                      |
|    \\/     M anipulation  |                                                 |
\*---------------------------------------------------------------------------*/
/*   Windows 32 and 64 bit porting by blueCAPE: http://www.bluecape.com.pt   *\
|  Based on Windows porting (2.0.x v4) by Symscape: http://www.symscape.com   |
\*---------------------------------------------------------------------------*/
FoamFile
{
    version     2.0;
    format      ascii;
    class       volScalarField;
    location    "0.01";
    object      p;
}
// * * * * * * * * * * * * * * * * * * * * * * * * * * * * * * * * * * * * * //

dimensions      [1 -1 -2 0 0 0 0];

internalField   nonuniform List<scalar> 
100
(
83060.4
67147.4
47338.9
37445.7
32351.4
30024.6
83230.1
67801.1
48342.5
38353.9
33051.9
30435.9
83255.4
67933.7
48467.6
38425.1
33033.4
30443.2
83316.7
68167.3
48847.1
38764
33252
30626
83333.3
68252.5
48957
38847.1
33316.9
30675.6
83412.8
68549.7
49384.8
39240.2
33429.6
30867.8
83221.8
67927.3
48526.3
38350
32975.4
30641
83519.5
68956.2
49975.3
39957.1
33739.3
31495.7
83077.2
67651.5
48691.4
38840.8
33356
31508.6
83889.6
69302.4
51062.4
41523.4
35634.8
33529.8
28051.2
27036.1
28214.4
27287.1
29234.9
28237.6
29687.4
28908.5
31305.9
30233.4
27278.9
27428.8
28097.6
27237.2
27389.2
28079.8
27204.5
27343.6
28048.6
27174.3
27354.8
28043.4
27149.5
27346.5
28035
27078.4
27378.9
28023.5
26912.7
27257.1
27924.6
27455.5
27556.3
27983
28221.4
28160
27587.6
29198.3
28800.7
26219.9
)
;

boundaryField
{
    inlet
    {
        type            zeroGradient;
    }
    outlet
    {
        type            zeroGradient;
    }
    bottom
    {
        type            symmetryPlane;
    }
    top
    {
        type            symmetryPlane;
    }
    obstacle
    {
        type            zeroGradient;
    }
    defaultFaces
    {
        type            empty;
    }
}


// ************************************************************************* //
