/*--------------------------------*- C++ -*----------------------------------*\
| =========                 |                                                 |
| \\      /  F ield         | OpenFOAM: The Open Source CFD Toolbox           |
|  \\    /   O peration     | Version:  5.x                                   |
|   \\  /    A nd           | Web:      www.OpenFOAM.org                      |
|    \\/     M anipulation  |                                                 |
\*---------------------------------------------------------------------------*/
/*   Windows 32 and 64 bit porting by blueCAPE: http://www.bluecape.com.pt   *\
|  Based on Windows porting (2.0.x v4) by Symscape: http://www.symscape.com   |
\*---------------------------------------------------------------------------*/
FoamFile
{
    version     2.0;
    format      ascii;
    class       surfaceScalarField;
    location    "0.01";
    object      phi;
}
// * * * * * * * * * * * * * * * * * * * * * * * * * * * * * * * * * * * * * //

dimensions      [1 0 -1 0 0 0 0];

internalField   nonuniform List<scalar> 
174
(
17.2637
-0.744268
23.3651
0.201684
25.0098
1.34776
23.4325
0.97235
20.5663
1.68252
0.543419
10.6877
-0.495195
14.4709
0.622478
15.6803
2.08375
14.8215
1.34365
12.8007
2.56587
0.869352
7.29992
-0.52731
10.0728
0.657394
11.0139
2.57375
10.4831
1.57942
9.16095
3.20845
0.999271
4.75329
-0.437409
6.54521
0.734052
7.17168
2.76152
6.86163
1.716
5.99133
3.59828
1.11228
3.18981
-0.398506
4.43274
0.741168
4.88542
2.8859
4.67273
1.80766
4.08467
3.86281
1.14504
13.2453
0.0236839
18.4383
0.841759
20.4596
3.18937
19.4573
2.33901
18.1595
3.78402
1.3189
16.765
24.3672
0.170509
33.1536
1.43498
36.1045
4.4719
33.9811
3.3498
31.7353
3.41942
1.75397
29.0912
41.3995
1.79137
58.283
0.930046
65.3279
3.10899
62.3774
2.31995
57.5938
2.69624
1.5593
53.0033
78.3106
-0.38595
105.834
2.48718
115.751
2.81421
108.975
1.49698
100.095
0.337273
-0.478807
92.0566
132.254
184.537
208.694
200.394
184.683
169.764
15.9388
0.0480426
-0.1572
15.2442
28.1203
0.267803
0.0482615
27.2037
51.4369
0.210208
0.0338611
50.0065
89.1671
-0.180346
-0.249341
86.6349
164.651
160.322
9.33546
-0.267482
9.54185
-0.191702
-1.36813
7.95282
-0.156237
7.91786
0.024154
-1.70087
6.40887
-0.00265
6.44085
0.0676048
-1.58257
4.53301
0.129024
4.5994
0.0444077
-1.5368
3.14337
0.237377
3.19772
0.0186692
-1.52142
14.9179
-0.0330069
14.0351
-0.461942
-1.87896
26.0621
-0.0758249
24.6724
-1.62677
-2.50703
48.0428
-0.195254
44.4387
-2.50853
-1.76701
83.2653
-0.490711
77.4441
-4.18769
-1.57596
154.558
140.125
)
;

boundaryField
{
    inlet
    {
        type            calculated;
        value           nonuniform List<scalar> 10(-4.12647 -7.5635 -12.9007 -24.1954 -41.3725 -5.15434 -3.34888 -2.23185 -1.48016 -0.986059);
    }
    outlet
    {
        type            calculated;
        value           nonuniform List<scalar> 10(10.8445 19.1171 34.4564 58.2931 109.251 7.84502 6.40234 5.06511 3.67558 2.54007);
    }
    bottom
    {
        type            symmetryPlane;
        value           uniform 0;
    }
    top
    {
        type            symmetryPlane;
        value           uniform 0;
    }
    obstacle
    {
        type            calculated;
        value           nonuniform List<scalar> 
12
(
18.9113
11.5654
8.42445
5.43951
3.75332
-9.02172
-8.02031
-6.53978
-4.64974
-3.23356
0.391468
0.463487
)
;
    }
    defaultFaces
    {
        type            empty;
        value           nonuniform 0();
    }
}


// ************************************************************************* //
