/*--------------------------------*- C++ -*----------------------------------*\
| =========                 |                                                 |
| \\      /  F ield         | OpenFOAM: The Open Source CFD Toolbox           |
|  \\    /   O peration     | Version:  5.x                                   |
|   \\  /    A nd           | Web:      www.OpenFOAM.org                      |
|    \\/     M anipulation  |                                                 |
\*---------------------------------------------------------------------------*/
/*   Windows 32 and 64 bit porting by blueCAPE: http://www.bluecape.com.pt   *\
|  Based on Windows porting (2.0.x v4) by Symscape: http://www.symscape.com   |
\*---------------------------------------------------------------------------*/
FoamFile
{
    version     2.0;
    format      ascii;
    class       volScalarField;
    location    "0.01";
    object      T;
}
// * * * * * * * * * * * * * * * * * * * * * * * * * * * * * * * * * * * * * //

dimensions      [0 0 0 1 0 0 0];

internalField   nonuniform List<scalar> 
100
(
328.333
318.102
272.965
269.528
273.579
303.812
328.747
318.123
271.177
268.834
275.243
310.903
328.753
318.66
272.805
269.172
273.791
305.006
328.889
318.673
272.374
269.106
273.762
305.8
328.917
318.898
272.835
269.242
273.563
305.27
329.071
318.953
273.119
269.815
273.975
284.657
328.73
318.432
272.861
269.591
274.402
285.39
329.241
319.408
273.881
270.766
275.158
286.414
328.502
318.19
273.135
270.762
276.492
289.766
329.611
319.889
275.666
274.047
279.743
292.978
298.401
303.944
299.161
305.133
300.375
307.038
305.804
313.512
309.412
316.99
369.985
369.393
390.161
393.334
390.026
399.809
397.362
396.522
410.555
395.335
393.376
411.137
388.718
387.012
408.31
315.328
345.347
401.466
315.624
346.6
399.21
315.484
347.197
397.421
322.897
352.45
395.797
324.543
353.244
390.749
)
;

boundaryField
{
    inlet
    {
        type            zeroGradient;
    }
    outlet
    {
        type            zeroGradient;
    }
    bottom
    {
        type            symmetryPlane;
    }
    top
    {
        type            symmetryPlane;
    }
    obstacle
    {
        type            zeroGradient;
    }
    defaultFaces
    {
        type            empty;
    }
}


// ************************************************************************* //
