/*--------------------------------*- C++ -*----------------------------------*\
| =========                 |                                                 |
| \\      /  F ield         | OpenFOAM: The Open Source CFD Toolbox           |
|  \\    /   O peration     | Version:  5.x                                   |
|   \\  /    A nd           | Web:      www.OpenFOAM.org                      |
|    \\/     M anipulation  |                                                 |
\*---------------------------------------------------------------------------*/
/*   Windows 32 and 64 bit porting by blueCAPE: http://www.bluecape.com.pt   *\
|  Based on Windows porting (2.0.x v4) by Symscape: http://www.symscape.com   |
\*---------------------------------------------------------------------------*/
FoamFile
{
    version     2.0;
    format      ascii;
    class       volVectorField;
    location    "0.01";
    object      U;
}
// * * * * * * * * * * * * * * * * * * * * * * * * * * * * * * * * * * * * * //

dimensions      [0 1 -1 0 0 0 0];

internalField   nonuniform List<vector> 
100
(
(31.0936 2.05297 0)
(102.43 10.7875 0)
(177.275 20.4149 0)
(224.271 25.3961 0)
(251.662 27.214 0)
(262.77 25.5413 0)
(30.1894 -1.26375 0)
(99.7428 -5.35944 0)
(177.682 -9.25707 -4.58858e-018)
(231.039 -12.0555 7.83209e-018)
(264.171 -9.23789 0)
(278.539 -12.2135 3.01457e-017)
(30.0788 0.784466 0)
(98.9816 4.49753 0)
(174.979 9.54394 0)
(225.797 11.6412 0)
(258.135 15.8949 0)
(271.894 12.584 1.1061e-017)
(29.8207 -0.407121 0)
(98.1647 -1.22726 -1.05801e-018)
(175.034 -1.22561 1.71967e-018)
(227.51 -2.05385 0)
(260.081 3.71608 0)
(274.418 -0.902794 8.3107e-018)
(29.7043 0.25347 -3.20081e-019)
(97.6015 2.03025 5.18968e-019)
(173.995 5.51015 0)
(226.216 6.36223 -2.72739e-018)
(259.483 12.2629 4.30002e-018)
(274.232 7.21217 6.17562e-018)
(29.2737 -0.605039 0)
(96.2188 -2.90759 0)
(173.275 -5.32293 0)
(227.306 -6.87114 0)
(261.638 -1.6495 0)
(291.886 -4.20556 0)
(30.2105 0.580686 0)
(99.2479 4.03065 0)
(176.336 10.8175 0)
(229.149 14.0591 0)
(261.796 15.946 0)
(289.714 13.352 0)
(28.9151 -0.442003 0)
(95.3603 -3.72017 0)
(172.342 -6.02294 0)
(227.258 -7.87873 0)
(261.605 -4.70906 0)
(288.763 -4.68568 0)
(30.5916 1.27571 0)
(100.865 6.18287 0)
(178.074 12.7551 0)
(231.306 16.5982 0)
(262.952 17.2419 0)
(285.084 16.2925 0)
(29.2225 -2.20217 0)
(95.9275 -6.60539 0)
(171.491 -14.9117 0)
(225.234 -21.9827 0)
(257.563 -27.3371 0)
(281.445 -32.1621 0)
(303.309 -4.96988 0)
(309.813 -6.2843 0)
(299.943 10.1215 0)
(307.525 6.2992 0)
(298.974 -6.16343 0)
(308.091 -8.06717 0)
(292.969 15.4252 0)
(299.855 14.2861 0)
(291.128 -33.3703 0)
(300.657 -34.4244 0)
(182.395 1.65719 1.48416e-016)
(187.278 6.492 -4.50869e-017)
(163.788 9.62889 0)
(266.461 -5.79921 1.13869e-016)
(260.943 -5.55061 1.71869e-017)
(204.982 -8.88401 -5.61775e-018)
(320.519 1.02245 0)
(317.907 3.47458 0)
(249.317 1.47552 0)
(341.135 -0.605541 6.19194e-017)
(341.091 -2.00381 -9.1342e-018)
(270.99 -3.8266 0)
(345.215 3.38486 2.2336e-017)
(347.777 1.09956 0)
(278.201 -0.837037 0)
(312.954 -3.80708 0)
(328.078 -4.18988 0)
(275.268 -4.91683 0)
(312.432 5.23067 0)
(327.62 1.25116 0)
(272.3 0.822669 0)
(315.124 -9.93728 0)
(331.742 -13.8657 0)
(274.226 -7.02442 0)
(305.167 12.357 0)
(318.76 1.53103 0)
(263.716 5.22083 0)
(308.689 -35.6144 0)
(330.398 -37.0378 0)
(289.064 -16.8638 0)
)
;

boundaryField
{
    inlet
    {
        type            zeroGradient;
    }
    outlet
    {
        type            zeroGradient;
    }
    bottom
    {
        type            symmetryPlane;
    }
    top
    {
        type            symmetryPlane;
    }
    obstacle
    {
        type            zeroGradient;
    }
    defaultFaces
    {
        type            empty;
    }
}


// ************************************************************************* //
