/*--------------------------------*- C++ -*----------------------------------*\
| =========                 |                                                 |
| \\      /  F ield         | OpenFOAM: The Open Source CFD Toolbox           |
|  \\    /   O peration     | Version:  5.x                                   |
|   \\  /    A nd           | Web:      www.OpenFOAM.org                      |
|    \\/     M anipulation  |                                                 |
\*---------------------------------------------------------------------------*/
/*   Windows 32 and 64 bit porting by blueCAPE: http://www.bluecape.com.pt   *\
|  Based on Windows porting (2.0.x v4) by Symscape: http://www.symscape.com   |
\*---------------------------------------------------------------------------*/
FoamFile
{
    version     2.0;
    format      ascii;
    class       surfaceScalarField;
    location    "0.004";
    object      phi;
}
// * * * * * * * * * * * * * * * * * * * * * * * * * * * * * * * * * * * * * //

dimensions      [1 0 -1 0 0 0 0];

internalField   nonuniform List<scalar> 
19740
(
2.20419e-011
-2.25153e-013
1.87735e-010
-1.77769e-012
1.5868e-009
-1.11511e-012
1.16885e-008
-6.32827e-013
8.45623e-008
1.72395e-012
5.39997e-007
-4.17444e-014
3.31211e-006
8.7752e-013
1.8109e-005
4.30767e-014
9.3005e-005
-1.40998e-012
0.000428041
-1.46105e-012
0.00181113
-1.74749e-012
0.00683992
-2.17604e-013
0.0227534
7.10543e-013
0.0642628
-3.06866e-013
0.155473
-4.55636e-013
0.324177
3.40172e-013
0.582238
1.29985e-012
0.903039
1.45994e-012
1.23386
-9.25926e-013
1.53302
1.23679e-013
1.78555
5.75096e-013
1.9846
4.53193e-013
2.14729
-2.44915e-013
2.26656
-2.81997e-013
2.33926
-1.24789e-013
2.4114
-2.77889e-013
2.46824
-2.8666e-013
2.48307
-1.50768e-013
2.46713
-7.89369e-014
2.45148
-1.42997e-013
2.47266
-1.65534e-013
2.49896
5.87308e-014
2.50888
4.76286e-014
2.49639
1.26177e-013
2.48751
1.09357e-013
2.45289
6.25611e-014
2.31889
1.00364e-013
2.05102
5.95635e-014
1.84313
7.87703e-014
1.71146
6.78346e-014
1.62602
-3.56382e-014
1.57846
-9.71445e-015
1.55275
-6.96665e-014
1.53903
-3.58602e-014
1.53105
-5.62883e-014
1.52285
-6.02851e-014
1.51991
-5.76261e-013
1.52205
5.61551e-013
1.51299
7.3791e-013
1.5072
1.30784e-013
1.49575
-4.60521e-013
1.46493
-1.41362e-012
1.40625
-3.7719e-012
1.28325
-1.18136e-011
0.974107
-1.28831e-011
0.219414
-2.51181e-010
0.0470228
-4.26685e-012
0.00902029
-2.03456e-009
0.00175292
-1.21294e-009
-9.82031e-009
2.13314e-011
-5.91083e-013
1.81666e-010
-2.31282e-012
1.53553e-009
-1.89182e-013
1.13109e-008
2.39364e-013
8.18299e-008
2.40119e-012
5.22549e-007
-1.75859e-013
3.20509e-006
7.92699e-013
1.75238e-005
-1.62537e-013
8.99998e-005
-2.87725e-012
0.00041421
-2.75291e-012
0.00175261
-2.6259e-012
0.00661891
-7.32747e-014
0.0220182
5.32907e-013
0.0621863
4.76064e-013
0.150449
-1.23901e-013
0.313702
3.69038e-013
0.563425
1.98508e-012
0.87386
2.17382e-012
1.19399
-5.82867e-013
1.48348
-2.93099e-013
1.72786
-1.50324e-013
1.92048
6.20837e-013
2.07791
-1.43663e-013
2.19333
-1.78746e-014
2.26367
-2.95319e-013
2.33348
-3.92131e-013
2.38848
-5.55112e-013
2.40284
-3.03424e-013
2.38741
-2.34146e-013
2.37227
-1.5965e-013
2.39276
-3.41949e-014
2.41821
8.49321e-014
2.42782
1.50491e-013
2.41572
2.78055e-013
2.40714
2.5091e-013
2.37364
2.06668e-013
2.24396
1.43108e-013
1.98475
1.15574e-013
1.78358
1.99174e-013
1.65616
1.4061e-013
1.57348
4.996e-016
1.52745
-2.01505e-014
1.50258
-8.91509e-014
1.4893
-1.44273e-013
1.48158
-2.60902e-014
1.47364
-1.24789e-013
1.4708
-5.92748e-013
1.47287
8.29781e-013
1.4641
9.85545e-013
1.4585
1.45217e-013
1.44742
-9.3664e-013
1.41759
-2.84228e-012
1.36081
-7.80362e-012
1.24179
-2.4221e-011
0.942632
-2.60051e-011
0.212325
-5.18867e-010
0.0455034
3.81853e-012
0.00872883
-4.24913e-009
0.00169628
-2.47752e-009
-2.07558e-008
2.06385e-011
-1.38156e-012
1.758e-010
-1.77014e-012
1.48592e-009
9.2637e-013
1.09454e-008
-1.25677e-013
7.91858e-008
1.86251e-012
5.05664e-007
9.23706e-014
3.10152e-006
7.74492e-013
1.69576e-005
2.24709e-013
8.70917e-005
-4.10783e-012
0.000400826
-2.83551e-012
0.00169598
-2.87192e-012
0.00640504
2.27374e-013
0.0213068
-2.54019e-013
0.060177
6.31939e-013
0.145588
-1.46994e-013
0.303566
7.75824e-013
0.545219
2.90923e-012
0.845624
3.23341e-012
1.15541
-5.86198e-013
1.43555
-3.14859e-013
1.67203
3.59712e-014
1.85842
3.95239e-013
2.01076
-4.84057e-014
2.12246
-1.06359e-013
2.19053
-3.90687e-013
2.25808
-5.07372e-013
2.31131
-4.77063e-013
2.3252
-1.5643e-013
2.31027
-2.40252e-013
2.29561
-3.36065e-013
2.31545
1.28453e-013
2.34007
-3.00315e-014
2.34937
3.55826e-014
2.33766
2.55462e-013
2.32936
2.41418e-013
2.29694
2.32758e-013
2.17146
1.55598e-013
1.92062
2.11886e-013
1.72595
3.24851e-013
1.60264
2.73115e-013
1.52264
3.60267e-014
1.4781
1.7375e-014
1.45403
-4.55191e-015
1.44118
-1.64424e-013
1.43371
-3.2585e-014
1.42603
-1.88405e-013
1.42327
-6.45262e-013
1.42528
8.41494e-013
1.41679
1.04589e-012
1.41137
2.14273e-014
1.40065
-1.40582e-012
1.37179
-4.36362e-012
1.31684
-1.20179e-011
1.20166
-3.73546e-011
0.912173
-3.87907e-011
0.205464
-8.25204e-010
0.0440331
3.63992e-011
0.00844678
-6.87298e-009
0.00164147
-3.86842e-009
-3.41856e-008
1.99735e-011
-1.64579e-012
1.70117e-010
-2.3026e-012
1.4379e-009
1.90203e-012
1.05917e-008
-1.15019e-013
7.66272e-008
2.07123e-012
4.89325e-007
-7.54952e-014
3.00131e-006
-5.59552e-014
1.64097e-005
-1.43885e-013
8.42776e-005
-5.05374e-012
0.000387874
-2.57527e-012
0.00164118
-3.753e-012
0.00619808
2.74891e-013
0.0206183
-6.08846e-013
0.0582325
1.63736e-012
0.140884
2.23377e-013
0.293757
2.44693e-013
0.527602
3.40394e-012
0.8183
3.14104e-012
1.11808
4.17444e-014
1.38916
-2.8999e-013
1.618
-1.01474e-013
1.79837
8.81517e-014
1.94579
-1.70308e-013
2.05387
-1.08802e-013
2.11975
-3.40394e-013
2.18512
-3.94573e-013
2.23662
-4.14668e-013
2.25006
-8.9484e-014
2.23562
-3.07754e-013
2.22144
-1.9007e-013
2.24063
1.89626e-013
2.26446
4.19664e-014
2.27346
1.58706e-013
2.26213
2.41862e-013
2.25409
1.52711e-013
2.22272
1.91791e-013
2.10129
2.63567e-013
1.85856
2.59182e-013
1.67018
3.06533e-013
1.55086
3.43447e-013
1.47344
1.97509e-013
1.43034
1.90681e-013
1.40704
1.23734e-013
1.39461
-1.19627e-013
1.38738
-1.1946e-013
1.37995
-9.4369e-014
1.37728
-4.29712e-013
1.37923
5.13034e-013
1.37101
4.75509e-013
1.36577
-1.54821e-013
1.35539
-1.99168e-012
1.32746
-5.86636e-012
1.27429
-1.62823e-011
1.16283
-5.12037e-011
0.882699
-5.03902e-011
0.198825
-1.19097e-009
0.0426103
1.11837e-010
0.00817385
-1.01399e-008
0.00158843
-5.44324e-009
-5.15948e-008
1.93286e-011
-2.07212e-012
1.64626e-010
-2.78977e-012
1.39144e-009
3.14726e-012
1.02495e-008
1.91847e-013
7.41512e-008
1.8594e-012
4.73514e-007
-3.14859e-013
2.90433e-006
-8.17124e-013
1.58794e-005
-4.03677e-013
8.15544e-005
-5.54001e-012
0.000375341
-3.26006e-012
0.00158815
-3.02869e-012
0.00599781
4.72067e-013
0.0199521
-6.1906e-013
0.0563509
2.46514e-012
0.136332
1.24345e-013
0.284265
-1.27454e-013
0.510554
3.85603e-012
0.791859
3.6513e-012
1.08195
-5.36682e-013
1.34428
-1.33227e-015
1.56572
-3.5616e-013
1.74026
-1.58318e-013
1.88292
1.69864e-013
1.98751
7.81597e-014
2.05125
9.88098e-015
2.11451
-3.88245e-013
2.16435
-2.70672e-013
2.17736
-8.55982e-014
2.16338
-1.77858e-013
2.14966
-1.99174e-013
2.16823
9.91429e-014
2.19129
1.70974e-013
2.2
7.73825e-014
2.18904
1.9551e-013
2.18126
2.0095e-013
2.1509
3.47777e-013
2.03339
4.30045e-013
1.7985
3.55882e-013
1.61621
2.60014e-013
1.50075
2.10554e-013
1.42583
4.19664e-013
1.38412
3.92297e-013
1.36158
2.50189e-013
1.34955
-7.21645e-016
1.34255
1.07137e-014
1.33536
-1.98175e-014
1.33278
-2.40752e-013
1.33466
1.72085e-015
1.32671
2.37033e-014
1.32164
-1.44107e-013
1.3116
-2.49151e-012
1.28457
-7.6763e-012
1.23311
-2.10723e-011
1.12526
-6.72454e-011
0.854177
-6.12027e-011
0.192401
-1.6396e-009
0.0412335
2.49579e-010
0.00790973
-1.43055e-008
0.0015371
-7.2396e-009
-7.47127e-008
1.87055e-011
-2.80886e-012
1.59305e-010
-2.71427e-012
1.34648e-009
3.36753e-012
9.9183e-009
2.05169e-013
7.17552e-008
2.0659e-012
4.58214e-007
-5.30687e-013
2.81048e-006
-1.28697e-012
1.53663e-005
-3.21965e-013
7.89192e-005
-6.76303e-012
0.000363213
-3.06555e-012
0.00153683
-2.50733e-012
0.00580401
9.79217e-013
0.0193074
-1.7164e-012
0.0545301
2.20846e-012
0.131926
-1.79856e-013
0.27508
5.64437e-013
0.494057
3.6593e-012
0.766272
3.81206e-012
1.04699
-4.11005e-013
1.30084
-2.90878e-013
1.51513
-4.99822e-013
1.68403
-1.02585e-013
1.82208
-9.28146e-014
1.92329
2.66676e-013
1.98497
8.28226e-014
2.04619
-1.99174e-013
2.09442
-1.73861e-013
2.107
1.49103e-013
2.09348
-3.09641e-013
2.0802
-3.89577e-013
2.09817
1.60205e-013
2.12049
1.45106e-013
2.12891
-1.82077e-014
2.1183
1.36724e-013
2.11078
2.06224e-013
2.0814
2.67619e-013
1.96769
2.95264e-013
1.74039
3.65152e-013
1.56399
3.11695e-013
1.45225
2.34923e-013
1.37976
5.81701e-013
1.3394
5.3435e-013
1.31758
3.5566e-013
1.30594
8.28226e-014
1.29917
1.00919e-013
1.29221
7.61058e-014
1.28971
-1.99896e-013
1.29153
-3.87801e-013
1.28384
-1.13298e-013
1.27893
-2.41196e-013
1.26922
-3.29992e-012
1.24306
-9.79278e-012
1.19327
-2.6933e-011
1.0889
-8.64941e-011
0.826577
-7.1376e-011
0.186184
-2.19437e-009
0.0399011
4.77442e-010
0.00765415
-1.96599e-008
0.00148743
-9.26888e-009
-1.05636e-007
1.81038e-011
-3.54738e-012
1.54164e-010
-2.92033e-012
1.30297e-009
3.90399e-012
9.59782e-009
2.04725e-013
6.94366e-008
2.2915e-012
4.43408e-007
-8.5576e-013
2.71967e-006
-1.10756e-012
1.48698e-005
-4.21885e-014
7.63692e-005
-6.90648e-012
0.000351477
-2.56284e-012
0.00148717
-2.10276e-012
0.00561647
8.1668e-013
0.0186835
-2.57527e-012
0.0527681
2.27951e-012
0.127664
-3.98792e-013
0.266192
6.79012e-013
0.478093
3.7228e-012
0.741513
3.79119e-012
1.01316
-5.47562e-013
1.25881
-2.17604e-013
1.46617
8.74856e-014
1.62962
4.92939e-014
1.7632
-2.23377e-013
1.86114
2.01394e-013
1.92083
-1.20459e-013
1.98007
-2.22267e-013
2.02674
-1.81966e-013
2.03892
1.61204e-013
2.02583
-2.53686e-013
2.01298
-3.61378e-013
2.03037
2.06501e-014
2.05197
1.49547e-013
2.06012
-5.81757e-014
2.04986
-1.11133e-013
2.04257
1.94844e-014
2.01415
1.74416e-013
1.90411
2.93543e-013
1.68415
3.56937e-013
1.51345
3.48221e-013
1.40533
3.74922e-013
1.33518
6.57419e-013
1.29612
6.20948e-013
1.27501
3.7631e-013
1.26374
8.13793e-014
1.25719
1.69087e-013
1.25046
2.09333e-013
1.24804
-3.94129e-015
1.2498
-5.04874e-013
1.24236
-1.16573e-013
1.23761
-4.16278e-013
1.22821
-4.14385e-012
1.2029
-1.21363e-011
1.15471
-3.34635e-011
1.05372
-1.08342e-010
0.799869
-7.91769e-011
0.180168
-2.87974e-009
0.0386118
8.31895e-010
0.00740683
-2.65391e-008
0.00143937
-1.15061e-008
-1.46948e-007
1.75197e-011
-4.59988e-012
1.49181e-010
-2.93454e-012
1.26087e-009
3.85381e-012
9.28769e-009
-1.41664e-013
6.7193e-008
3.10818e-012
4.29081e-007
-1.48992e-012
2.63179e-006
-6.81233e-013
1.43893e-005
5.44897e-013
7.39015e-005
-6.65779e-012
0.00034012
-1.92646e-012
0.00143912
-1.85763e-012
0.00543499
1.0969e-013
0.0180798
-2.23066e-012
0.0510631
1.76037e-012
0.123539
-4.25882e-013
0.25759
9.01501e-013
0.462645
4.00213e-012
0.717553
3.55405e-012
0.98042
-7.25642e-013
1.21813
3.33289e-013
1.4188
-4.51639e-013
1.57696
2.48024e-013
1.70623
-2.73115e-014
1.80101
3.9968e-014
1.85877
-9.63674e-014
1.91609
-3.51941e-013
1.96125
-2.16382e-013
1.97304
5.65104e-014
1.96037
-2.32481e-013
1.94794
-2.49689e-013
1.96477
-1.0103e-014
1.98567
2.07168e-013
1.99355
-1.21458e-013
1.98362
1.9984e-015
1.97657
6.15064e-014
1.94906
1.12743e-013
1.84259
2.63845e-013
1.62974
3.45612e-013
1.46455
5.22526e-013
1.35992
4.78284e-013
1.29203
5.75762e-013
1.25424
5.43454e-013
1.23381
3.47278e-013
1.22291
2.14828e-014
1.21657
7.14984e-014
1.21005
3.16636e-013
1.20771
2.75391e-013
1.20942
-4.98324e-013
1.20221
-6.35048e-014
1.19762
-5.68101e-013
1.18852
-4.97336e-012
1.16403
-1.42891e-011
1.1174
-3.98592e-011
1.01967
-1.31768e-010
0.774023
-8.12214e-011
0.174346
-3.72359e-009
0.0373642
1.35928e-009
0.0071675
-3.53336e-008
0.00139286
-1.38752e-008
-2.01848e-007
1.6958e-011
-4.7029e-012
1.44368e-010
-3.13882e-012
1.22013e-009
4.26414e-012
8.98759e-009
3.90799e-014
6.50218e-008
3.745e-012
4.15216e-007
-1.57785e-012
2.54675e-006
-5.62661e-013
1.39244e-005
5.9952e-013
7.15136e-005
-7.0659e-012
0.00032913
-9.95648e-013
0.00139262
-2.22311e-012
0.00525937
3.96572e-013
0.0174956
-2.02238e-012
0.0494131
1.27143e-012
0.119547
5.4623e-014
0.249267
1.22258e-012
0.447696
4.22684e-012
0.694367
4.03588e-012
0.948741
-1.08624e-012
1.17877
2.61791e-013
1.37295
-1.01807e-012
1.52601
5.9508e-013
1.6511
-2.72227e-013
1.74281
-1.41887e-013
1.79871
-2.47358e-013
1.85418
-2.911e-013
1.89788
-2.68563e-013
1.90929
4.82947e-014
1.89703
-1.68754e-013
1.885
-2.50133e-013
1.90128
1.07025e-013
1.9215
2.37366e-013
1.92914
-8.40439e-014
1.91953
-8.41549e-014
1.91271
5.01821e-014
1.88609
2.33147e-013
1.78305
2.4547e-013
1.57708
3.87468e-013
1.41723
4.91662e-013
1.31598
5.45675e-013
1.25029
5.07094e-013
1.21371
4.46143e-013
1.19394
2.53297e-013
1.1834
-9.60898e-014
1.17726
-5.82867e-014
1.17095
3.45612e-013
1.16869
1.69642e-013
1.17034
-2.77278e-013
1.16337
1.80356e-013
1.15892
-6.10345e-013
1.15012
-5.65215e-012
1.12642
-1.63861e-011
1.08129
-4.64511e-011
0.98672
-1.57739e-010
0.749013
-7.69976e-011
0.168713
-4.75549e-009
0.0361569
2.11824e-009
0.0069359
-4.64962e-008
0.00134785
-1.62296e-008
-2.74277e-007
1.64106e-011
-4.31122e-012
1.39702e-010
-3.67528e-012
1.18071e-009
4.32365e-012
8.69717e-009
4.44977e-013
6.29208e-008
4.36629e-012
4.018e-007
-1.93134e-012
2.46446e-006
-5.67546e-013
1.34745e-005
1.20259e-012
6.92029e-005
-6.81366e-012
0.000318495
-3.3662e-013
0.00134762
-1.58851e-012
0.00508943
6.75904e-013
0.0169303
-1.75238e-012
0.0478165
3.37064e-013
0.115684
7.27418e-013
0.241213
1.43219e-012
0.43323
4.58922e-012
0.671931
3.82228e-012
0.918085
-6.31495e-013
1.14068
8.43769e-014
1.32859
-7.9492e-013
1.4767
4.92717e-013
1.59775
-1.17684e-014
1.6865
-2.68008e-013
1.74059
-5.87974e-013
1.79427
-3.36065e-013
1.83656
-3.63709e-013
1.84759
1.67644e-014
1.83573
-1.28786e-014
1.82409
-2.38809e-013
1.83985
2.94875e-013
1.85942
9.90319e-014
1.8668
-1.68421e-013
1.8575
-8.88178e-014
1.8509
1.27121e-013
1.82514
4.60743e-013
1.72543
4.67737e-013
1.52612
4.54969e-013
1.37143
5.61273e-013
1.27345
3.75922e-013
1.20989
3.46279e-013
1.17449
3.08253e-013
1.15536
1.33116e-013
1.14516
-1.50435e-013
1.13922
8.26006e-014
1.13312
3.33289e-013
1.13093
-1.35836e-013
1.13252
5.4734e-014
1.12578
8.21565e-015
1.12147
-8.04468e-013
1.11295
-6.76142e-012
1.09002
-1.87892e-011
1.04636
-5.40352e-011
0.954837
-1.88018e-010
0.724811
-6.60096e-011
0.163261
-6.00874e-009
0.0349886
3.1814e-009
0.00671179
-6.05474e-008
0.0013043
-1.83277e-008
-3.69065e-007
1.58847e-011
-4.28457e-012
1.35195e-010
-3.47988e-012
1.14256e-009
4.19753e-012
8.41615e-009
3.53495e-013
6.08877e-008
4.7784e-012
3.88817e-007
-2.36522e-012
2.38483e-006
3.04201e-013
1.30391e-005
1.02407e-012
6.69668e-005
-6.12799e-012
0.000308204
-3.01092e-013
0.00130407
-1.10845e-012
0.00492498
5.52447e-013
0.0163832
-1.33538e-012
0.0462714
1.9007e-013
0.111946
6.79012e-013
0.233419
1.91358e-012
0.419231
4.44889e-012
0.650219
3.44347e-012
0.888419
-8.94396e-013
1.10383
5.19584e-013
1.28566
-9.05276e-013
1.42898
7.53841e-013
1.54612
1.64757e-013
1.632
-2.42917e-013
1.68434
-4.7029e-013
1.73629
-3.06644e-013
1.77721
-3.94462e-013
1.7879
-2.34479e-013
1.77641
-2.75335e-014
1.76515
-3.28737e-013
1.7804
3.98015e-013
1.79933
-2.1283e-013
1.80648
-2.87659e-013
1.79748
-6.01741e-014
1.7911
2.71227e-013
1.76617
5.17031e-013
1.66968
6.36047e-013
1.47681
6.68576e-013
1.32712
6.34715e-013
1.23231
2.5896e-013
1.17079
4.36928e-013
1.13654
4.01179e-013
1.11803
2.73614e-013
1.10815
6.43929e-014
1.10241
4.61131e-013
1.0965
7.4768e-013
1.09439
-1.10967e-013
1.09593
-1.65812e-013
1.0894
-8.00637e-013
1.08524
-1.27143e-012
1.07699
-8.11218e-012
1.0548
-2.19442e-011
1.01255
-6.28005e-011
0.923984
-2.22525e-010
0.70139
-4.5381e-011
0.157986
-7.51845e-009
0.033858
4.6375e-009
0.00649491
-7.80806e-008
0.00126215
-1.98068e-008
-4.92082e-007
1.53705e-011
-3.58202e-012
1.30825e-010
-2.69118e-012
1.10564e-009
3.8467e-012
8.14421e-009
5.32907e-015
5.89203e-008
5.13189e-012
3.76253e-007
-2.62101e-012
2.30777e-006
4.59188e-013
1.26177e-005
1.06937e-012
6.48029e-005
-4.8499e-012
0.000298245
-3.40172e-013
0.00126194
-1.03073e-012
0.00476584
3.0731e-013
0.0158539
-1.10667e-012
0.0447763
-2.37144e-013
0.108329
7.2653e-013
0.225876
2.91367e-012
0.405685
4.37517e-012
0.629209
3.55271e-012
0.859713
-3.96128e-013
1.06816
5.89306e-013
1.24412
-7.08766e-013
1.38281
1.10201e-012
1.49616
-1.51434e-013
1.57927
-1.62093e-014
1.62992
-6.50147e-013
1.68019
-3.84137e-013
1.71979
-5.4734e-013
1.73012
-2.21267e-013
1.71901
-8.55982e-014
1.70811
-2.30704e-013
1.72287
1.1624e-013
1.74119
2.87548e-014
1.74811
-1.12466e-013
1.7394
-7.03881e-014
1.73322
3.91798e-013
1.7091
7.29639e-013
1.61573
8.43769e-013
1.42909
7.01328e-013
1.28424
5.22693e-013
1.19249
2.93432e-013
1.13296
6.7174e-013
1.09982
6.48259e-013
1.08191
5.36182e-013
1.07235
4.24771e-013
1.06679
7.67331e-013
1.06107
1.44457e-012
1.05902
2.16771e-013
1.06052
-9.62896e-013
1.0542
-1.91652e-012
1.05017
-2.02549e-012
1.04219
-9.71645e-012
1.02071
-2.49165e-011
0.979828
-7.18734e-011
0.894128
-2.60308e-010
0.678727
-1.08311e-011
0.152881
-9.32065e-009
0.032764
6.59289e-009
0.00628505
-9.97644e-008
0.00122136
-2.01472e-008
-6.50403e-007
1.48788e-011
-4.49596e-012
1.26604e-010
-2.31637e-012
1.06991e-009
3.30225e-012
7.88105e-009
-1.81188e-013
5.70165e-008
5.12568e-012
3.64096e-007
-2.78177e-012
2.2332e-006
2.45137e-013
1.221e-005
1.10045e-012
6.2709e-005
-4.51283e-012
0.000288608
2.60236e-013
0.00122116
-5.17364e-013
0.00461185
4.55636e-013
0.0153416
-8.18901e-013
0.0433295
-4.36984e-013
0.104828
9.88098e-013
0.218578
2.81286e-012
0.392576
3.80718e-012
0.608878
3.24718e-012
0.831934
6.26166e-014
1.03365
6.00409e-013
1.20392
-5.44009e-013
1.33813
1.05316e-012
1.44782
-2.91989e-013
1.52824
1.94955e-013
1.57725
-3.55715e-013
1.6259
-3.3884e-013
1.66422
-5.56111e-013
1.67422
3.9746e-014
1.66347
-7.07212e-014
1.65292
-1.9762e-013
1.6672
-2.9976e-014
1.68493
2.43583e-013
1.69163
-1.51656e-013
1.6832
-2.19824e-014
1.67722
4.48641e-013
1.65387
7.38742e-013
1.56352
8.41771e-013
1.38291
7.77267e-013
1.24274
5.87308e-013
1.15396
4.40425e-013
1.09635
1.02673e-012
1.06428
9.64118e-013
1.04695
8.26283e-013
1.0377
7.2431e-013
1.03232
9.35196e-013
1.02679
1.70186e-012
1.0248
1.68143e-013
1.02625
-1.66217e-012
1.02014
-2.30876e-012
1.01624
-2.74197e-012
1.00852
-1.12677e-011
0.987733
-2.77955e-011
0.948167
-8.04615e-011
0.865237
-2.99699e-010
0.656796
4.25854e-011
0.147941
-1.14517e-008
0.0317053
9.17316e-009
0.00608196
-1.26343e-007
0.00118189
-1.86322e-008
-8.52475e-007
1.4396e-011
-4.19398e-012
1.2251e-010
-2.18225e-012
1.03534e-009
2.69829e-012
7.6264e-009
-4.90274e-013
5.51741e-008
5.63105e-012
3.52331e-007
-3.02691e-012
2.16104e-006
6.42153e-013
1.18155e-005
1.02762e-012
6.06828e-005
-3.49765e-012
0.000279283
7.38076e-013
0.0011817
-2.88658e-013
0.00446283
7.08766e-013
0.0148459
-2.02061e-013
0.0419294
-6.63025e-013
0.101441
1.52278e-012
0.211515
2.3781e-012
0.379891
3.76321e-012
0.589204
2.87592e-012
0.805052
1.70974e-013
1.00025
4.43201e-013
1.16502
-2.35367e-013
1.29489
7.91811e-013
1.40104
-2.6823e-013
1.47886
3.60822e-013
1.52629
-2.07168e-013
1.57336
-2.14051e-013
1.61044
-2.76001e-013
1.62012
8.80407e-014
1.60972
-1.68643e-013
1.59951
-2.13385e-013
1.61333
1.75415e-013
1.63049
-3.26406e-014
1.63697
-1.14908e-013
1.62881
-7.9492e-014
1.62302
4.90719e-013
1.60043
7.64722e-013
1.513
9.13492e-013
1.33823
8.89511e-013
1.20258
7.81597e-013
1.11667
4.7129e-013
1.06093
1.24134e-012
1.02989
1.20792e-012
1.01312
1.07547e-012
1.00417
8.69693e-013
0.99896
8.78742e-013
0.993611
1.24778e-012
0.991691
-5.02709e-013
0.993089
-1.73261e-012
0.987174
-1.67039e-012
0.9834
-3.14293e-012
0.975929
-1.25527e-011
0.955818
-2.99923e-011
0.91753
-8.83689e-011
0.83728
-3.40703e-010
0.635574
1.19229e-010
0.143161
-1.39492e-008
0.0306809
1.2524e-008
0.00588544
-1.58636e-007
0.00114369
-1.43028e-008
-1.1083e-006
1.39369e-011
-4.17977e-012
1.18557e-010
-3.01092e-012
1.00189e-009
2.24887e-012
7.37997e-009
-2.6823e-013
5.33914e-008
5.66391e-012
3.40946e-007
-2.8324e-012
2.09121e-006
1.59694e-012
1.14337e-005
9.73444e-013
5.8722e-005
-2.48424e-012
0.000270259
1.30917e-012
0.00114352
-1.52767e-013
0.00431863
3.80584e-013
0.0143662
-5.50671e-014
0.0405746
-3.81473e-013
0.0981634
2.07967e-012
0.204681
2.23332e-012
0.367616
3.45723e-012
0.570166
2.6783e-012
0.779039
7.77156e-014
0.967926
5.17808e-013
1.12737
-2.78e-013
1.25305
8.12461e-013
1.35577
-3.09308e-013
1.43107
3.40172e-013
1.47697
-2.19602e-013
1.52252
-5.973e-014
1.55841
-1.62759e-013
1.56777
2.21823e-013
1.55771
-1.65645e-013
1.54783
-1.64313e-013
1.5612
1.76414e-013
1.5778
3.45279e-014
1.58407
-5.16254e-014
1.57618
-7.43849e-014
1.57058
3.50275e-013
1.54872
6.00187e-013
1.46411
8.39995e-013
1.29498
9.73444e-013
1.16373
9.12048e-013
1.08059
4.65294e-013
1.02665
1.33515e-012
0.996613
1.35347e-012
0.980383
1.18772e-012
0.971721
8.33333e-013
0.966682
7.54563e-013
0.961506
4.40759e-013
0.959647
-1.59284e-012
0.961
-1.05432e-012
0.955276
-4.93439e-013
0.951625
-3.11223e-012
0.944395
-1.36161e-011
0.924933
-3.1787e-011
0.887883
-9.56319e-011
0.810225
-3.8392e-010
0.615037
2.22136e-010
0.138535
-1.6851e-008
0.0296895
1.68122e-008
0.00569526
-1.97531e-007
0.00110673
-5.90053e-009
-1.42963e-006
1.3483e-011
-3.81029e-012
1.14724e-010
-3.40794e-012
9.69517e-010
1.66178e-012
7.14151e-009
-3.01092e-013
5.16662e-008
5.28821e-012
3.2993e-007
-3.37064e-012
2.02364e-006
2.07834e-012
1.10643e-005
7.83373e-013
5.68245e-005
-1.88027e-012
0.000261526
2.1112e-012
0.00110657
-3.09086e-013
0.00417908
2.44249e-013
0.013902
-7.9492e-014
0.0392635
-3.84581e-013
0.0949916
1.99396e-012
0.198067
1.58806e-012
0.355738
3.11218e-012
0.551742
2.53531e-012
0.753867
5.24913e-013
0.93665
2.76223e-013
1.09094
-9.59233e-014
1.21256
8.20677e-013
1.31196
1.75637e-013
1.38483
2.12275e-013
1.42925
-4.04121e-014
1.47333
1.06581e-014
1.50805
1.3145e-013
1.51712
3.51608e-013
1.50737
-8.52651e-014
1.49781
2.9643e-014
1.51075
2.33258e-013
1.52682
3.26406e-014
1.53289
-2.55351e-015
1.52525
3.83027e-014
1.51983
2.81553e-013
1.49868
5.76206e-013
1.4168
8.67861e-013
1.25314
9.67004e-013
1.12612
8.25118e-013
1.04567
6.65801e-013
0.993474
1.24567e-012
0.964411
1.30562e-012
0.948704
1.12299e-012
0.940323
8.24785e-013
0.935446
7.65055e-013
0.930437
-4.74065e-014
0.928639
-2.35717e-012
0.929948
-1.87628e-013
0.924409
1.17406e-013
0.920876
-2.99105e-012
0.91388
-1.44959e-011
0.895047
-3.31694e-011
0.859193
-1.027e-010
0.784045
-4.29444e-010
0.595164
3.55582e-010
0.134059
-2.01945e-008
0.0287302
2.22254e-008
0.00551123
-2.43979e-007
0.00107096
8.14255e-009
-1.83012e-006
1.30531e-011
-3.65663e-012
1.11021e-010
-3.91065e-012
9.38192e-010
3.65041e-013
6.91075e-009
-3.68594e-013
4.99967e-008
4.55636e-012
3.19269e-007
-3.86446e-012
1.95826e-006
1.97975e-012
1.07068e-005
2.99316e-013
5.49884e-005
-1.20526e-012
0.000253076
2.49578e-012
0.00107081
-4.42313e-013
0.00404405
3.51719e-013
0.0134528
-1.78524e-013
0.0379948
-8.36664e-013
0.0919222
1.67377e-012
0.191667
1.56897e-012
0.344243
3.25384e-012
0.533914
2.37899e-012
0.729508
5.34239e-013
0.906385
2.95319e-013
1.05569
1.95399e-014
1.17338
1.22435e-012
1.26957
5.46674e-013
1.34009
1.52545e-013
1.38307
3.88578e-014
1.42572
9.54792e-015
1.45932
6.41709e-014
1.46809
2.12053e-013
1.45867
6.82787e-014
1.44942
1.22014e-013
1.46194
4.02012e-013
1.47749
-1.28564e-013
1.48336
8.88178e-016
1.47597
-1.33227e-015
1.47072
2.40918e-013
1.45025
5.17475e-013
1.37102
8.02247e-013
1.21265
1.05027e-012
1.08974
9.95648e-013
1.01188
7.17981e-013
0.961372
1.09546e-012
0.933248
1.18328e-012
0.91805
1.06715e-012
0.909939
9.33587e-013
0.90522
9.94316e-013
0.900373
1.57985e-013
0.898632
-2.11481e-012
0.8999
1.77636e-014
0.89454
-6.02296e-014
0.89112
-3.11101e-012
0.88435
-1.57146e-011
0.866126
-3.4434e-011
0.831431
-1.09479e-010
0.758711
-4.77086e-010
0.575933
5.23952e-010
0.129727
-2.40137e-008
0.0278018
2.89724e-008
0.00533315
-2.98985e-007
0.00103634
2.98882e-008
-2.32556e-006
1.26265e-011
-5.06795e-012
1.07433e-010
-3.99947e-012
9.07878e-010
-1.27898e-013
6.68745e-009
-7.13207e-013
4.83812e-008
3.44524e-012
3.08953e-007
-3.91243e-012
1.89498e-006
1.7284e-012
1.03608e-005
-1.3145e-013
5.32116e-005
-1.08091e-012
0.000244898
2.69562e-012
0.00103621
-1.12355e-012
0.00391337
1.76748e-013
0.0130181
-3.23297e-013
0.0367671
-1.15108e-012
0.088952
1.28564e-012
0.185474
1.78524e-012
0.33312
3.13216e-012
0.516662
2.64233e-012
0.705936
1.49658e-013
0.877098
6.11955e-013
1.02158
-8.92619e-014
1.13547
1.15286e-012
1.22854
6.8634e-013
1.29679
3.75033e-013
1.33838
1.48326e-013
1.37965
9.57012e-014
1.41217
1.26565e-014
1.42066
3.46168e-013
1.41153
8.77076e-014
1.40258
1.13687e-013
1.4147
2.21489e-013
1.42975
5.62883e-014
1.43543
7.20535e-014
1.42827
-3.81917e-014
1.4232
3.09752e-013
1.40339
6.61027e-013
1.32672
8.18789e-013
1.17347
8.21343e-013
1.05452
9.37583e-013
0.979188
8.10685e-013
0.930308
1.06515e-012
0.903093
1.17695e-012
0.888386
1.04883e-012
0.880537
9.73888e-013
0.87597
1.29174e-012
0.87128
9.28035e-013
0.869596
-1.19271e-012
0.870822
-4.72899e-013
0.865635
-9.43134e-013
0.862326
-3.52363e-012
0.855775
-1.69922e-011
0.838139
-3.54906e-011
0.804566
-1.15159e-010
0.734195
-5.25026e-010
0.557323
7.34277e-010
0.125535
-2.83389e-008
0.0269035
3.72779e-008
0.00516082
-3.63592e-007
0.00100284
6.18475e-008
-2.93402e-006
1.22241e-011
-5.24114e-012
1.03964e-010
-3.84848e-012
8.78544e-010
-6.01297e-013
6.47137e-009
-1.09956e-012
4.68179e-008
2.49667e-012
2.9897e-007
-3.58824e-012
1.83375e-006
1.35802e-012
1.0026e-005
-9.40581e-013
5.14923e-005
-4.30767e-013
0.000236985
2.41496e-012
0.00100273
-1.1493e-012
0.00378693
2.22045e-013
0.0125974
3.43725e-013
0.0355791
-1.47615e-012
0.0860778
1.57652e-012
0.179481
1.62892e-012
0.322356
3.43592e-012
0.499968
2.56994e-012
0.683126
3.4639e-014
0.848757
5.17364e-013
0.988571
-2.95763e-013
1.09878
1.07336e-012
1.18885
6.01519e-013
1.25488
5.02487e-013
1.29513
3.33067e-014
1.33507
8.61533e-014
1.36654
2.64233e-014
1.37475
2.9976e-013
1.36592
2.2049e-013
1.35726
1.74749e-013
1.36899
2.19269e-013
1.38355
7.76046e-014
1.38904
7.34968e-014
1.38212
-1.34892e-013
1.37721
3.92686e-013
1.35805
7.15428e-013
1.28385
8.32667e-013
1.13555
7.64944e-013
1.02045
9.15157e-013
0.947548
8.57203e-013
0.900248
1.06704e-012
0.873912
1.18772e-012
0.85968
1.0949e-012
0.852085
1.0868e-012
0.847666
1.50291e-012
0.843127
1.66056e-012
0.841497
-6.34937e-013
0.842684
-9.91207e-013
0.837665
-1.13859e-012
0.834463
-3.98565e-012
0.828123
-1.80913e-011
0.811057
-3.5411e-011
0.778569
-1.18632e-010
0.710472
-5.71477e-010
0.539315
9.93407e-010
0.121479
-3.31954e-008
0.0260342
4.73846e-008
0.00499405
-4.38868e-007
0.00097042
1.07086e-007
-3.67603e-006
1.18252e-011
-6.44285e-012
1.00604e-010
-3.85914e-012
8.50157e-010
-1.29141e-012
6.26226e-009
-1.65112e-012
4.53051e-008
1.76392e-012
2.89309e-007
-3.9142e-012
1.7745e-006
1.54365e-012
9.70207e-006
-1.94422e-012
4.98284e-005
1.90958e-013
0.000229327
2.22311e-012
0.000970331
-1.19371e-012
0.00366456
-5.63993e-013
0.0121904
7.9492e-013
0.0344295
-1.47615e-012
0.0832964
1.70441e-012
0.173681
1.55254e-012
0.31194
3.76588e-012
0.483813
2.21023e-012
0.661052
3.57936e-013
0.821332
4.21441e-013
0.956629
-2.57572e-013
1.06327
1.11289e-012
1.15043
5.62883e-013
1.21434
6.45706e-013
1.25328
-2.15383e-014
1.29193
8.77076e-014
1.32238
-7.14984e-014
1.33033
2.44249e-013
1.32179
1.31006e-013
1.31341
2.09943e-013
1.32475
1.108e-013
1.33884
1.38223e-013
1.34416
7.24976e-014
1.33746
9.99201e-015
1.33271
3.10418e-013
1.31416
6.93667e-013
1.24237
8.73412e-013
1.09886
8.60978e-013
0.987478
8.73523e-013
0.916931
9.94205e-013
0.871159
1.0868e-012
0.845674
1.17983e-012
0.831902
1.16784e-012
0.824552
1.11844e-012
0.820276
1.4504e-012
0.815884
2.16449e-012
0.814307
-9.81215e-013
0.815455
-1.00586e-012
0.810598
-6.76126e-013
0.807499
-4.28957e-012
0.801365
-1.90339e-011
0.78485
-3.45335e-011
0.753411
-1.19944e-010
0.687515
-6.15553e-010
0.521888
1.3065e-009
0.117554
-3.86033e-008
0.025193
5.95477e-008
0.00483267
-5.25883e-007
0.000939043
1.69293e-007
-4.57474e-006
1.1448e-011
-6.92868e-012
9.73552e-011
-4.11671e-012
8.22687e-010
-1.89626e-012
6.05992e-009
-2.28173e-012
4.38412e-008
8.44658e-013
2.79961e-007
-4.48086e-012
1.71716e-006
1.47615e-012
9.38857e-006
-2.25331e-012
4.82184e-005
5.48894e-013
0.000221917
1.76392e-012
0.000938977
-1.17684e-012
0.00354615
-1.02141e-012
0.0117965
8.54428e-013
0.033317
-1.51168e-012
0.0806049
1.58895e-012
0.168069
1.74083e-012
0.301861
3.08731e-012
0.46818
2.55529e-012
0.639692
5.20028e-013
0.794793
5.00044e-013
0.925718
-3.4639e-014
1.02892
6.67466e-013
1.11326
5.11147e-013
1.1751
6.35714e-013
1.21279
1.73861e-013
1.25019
2.11609e-013
1.27966
9.12603e-014
1.28735
2.60902e-013
1.27908
1.34559e-013
1.27097
1.77525e-013
1.28195
8.21565e-015
1.29558
1.98064e-013
1.30073
1.42775e-013
1.29425
1.01918e-013
1.28965
3.7581e-013
1.2717
7.2975e-013
1.20223
9.04832e-013
1.06335
9.19376e-013
0.95557
9.17488e-013
0.887303
1.0163e-012
0.84301
1.12588e-012
0.818349
1.1392e-012
0.805021
1.0002e-012
0.797909
9.7633e-013
0.793771
1.21414e-012
0.789521
2.54863e-012
0.787995
-1.87506e-012
0.789106
-4.63296e-013
0.784406
-1.87295e-013
0.781407
-4.51406e-012
0.775471
-1.96388e-011
0.75949
-3.23839e-011
0.729067
-1.18563e-010
0.6653
-6.5628e-010
0.505025
1.67843e-009
0.113755
-4.45769e-008
0.0243789
7.40314e-008
0.00467651
-6.25692e-007
0.000908677
2.52851e-007
-5.65604e-006
1.10752e-011
-7.01572e-012
9.42101e-011
-4.2002e-012
7.96105e-010
-3.0731e-012
5.86411e-009
-3.0429e-012
4.24246e-008
2.56684e-013
2.70915e-007
-4.92939e-012
1.66167e-006
1.48948e-012
9.08521e-006
-2.3066e-012
4.66603e-005
6.50147e-013
0.000214747
1.6982e-012
0.000908637
-8.26006e-013
0.00343157
-1.36868e-012
0.0114153
1.24789e-012
0.0322405
-1.50635e-012
0.0780004
1.92735e-012
0.162639
2.20357e-012
0.292107
2.65743e-012
0.453052
2.73292e-012
0.619023
6.88338e-013
0.769111
4.996e-013
0.895806
-3.09086e-013
0.995669
2.97984e-013
1.07729
6.2883e-013
1.13713