/*--------------------------------*- C++ -*----------------------------------*\
| =========                 |                                                 |
| \\      /  F ield         | OpenFOAM: The Open Source CFD Toolbox           |
|  \\    /   O peration     | Version:  5.x                                   |
|   \\  /    A nd           | Web:      www.OpenFOAM.org                      |
|    \\/     M anipulation  |                                                 |
\*---------------------------------------------------------------------------*/
/*   Windows 32 and 64 bit porting by blueCAPE: http://www.bluecape.com.pt   *\
|  Based on Windows porting (2.0.x v4) by Symscape: http://www.symscape.com   |
\*---------------------------------------------------------------------------*/
FoamFile
{
    version     2.0;
    format      ascii;
    class       surfaceScalarField;
    location    "0.004";
    object      phi_0;
}
// * * * * * * * * * * * * * * * * * * * * * * * * * * * * * * * * * * * * * //

dimensions      [1 0 -1 0 0 0 0];

internalField   nonuniform List<scalar> 
19740
(
2.18982e-011
-2.28262e-013
1.86561e-010
-1.78124e-012
1.57737e-009
-1.07336e-012
1.16221e-008
-6.52811e-013
8.41082e-008
1.72973e-012
5.37243e-007
-2.70894e-014
3.29626e-006
8.73523e-013
1.80274e-005
3.9968e-014
9.2616e-005
-1.44151e-012
0.000426381
-1.46905e-012
0.00180471
-1.7204e-012
0.00681739
-2.21156e-013
0.0226911
6.8523e-013
0.0641143
-3.09974e-013
0.155181
-4.57412e-013
0.323688
3.26406e-013
0.58159
1.29718e-012
0.902347
1.4504e-012
1.23324
-9.41025e-013
1.53253
1.25233e-013
1.7852
5.80869e-013
1.98436
4.55413e-013
2.14713
-2.46025e-013
2.26645
-2.80997e-013
2.3392
-1.24789e-013
2.4114
-2.76446e-013
2.46823
-2.91989e-013
2.48304
-1.4988e-013
2.46707
-7.61613e-014
2.45148
-1.44107e-013
2.47274
-1.60261e-013
2.49904
5.91194e-014
2.50891
5.07372e-014
2.49634
1.28841e-013
2.48746
1.11133e-013
2.45263
6.44484e-014
2.31814
1.03972e-013
2.05019
6.21725e-014
1.84254
8.33222e-014
1.71104
6.56697e-014
1.62578
-3.38618e-014
1.57833
-8.16014e-015
1.55273
-6.81677e-014
1.53911
-3.45279e-014
1.53111
-5.85643e-014
1.52286
-6.29496e-014
1.51992
-5.72542e-013
1.52202
5.83533e-013
1.51286
7.09266e-013
1.50707
1.25899e-013
1.49552
-4.57634e-013
1.46452
-1.40102e-012
1.40505
-3.69713e-012
1.28072
-1.16166e-011
0.968601
-1.22114e-011
0.216594
-2.48264e-010
0.0462563
-4.47621e-012
0.00888063
-2.00762e-009
0.00172647
-1.19736e-009
-9.69146e-009
2.11924e-011
-5.87974e-013
1.8053e-010
-2.31815e-012
1.52641e-009
-1.57208e-013
1.12466e-008
2.1938e-013
8.13905e-008
2.39853e-012
5.19883e-007
-1.53655e-013
3.18975e-006
7.78488e-013
1.74449e-005
-1.75859e-013
8.96234e-005
-2.91456e-012
0.000412604
-2.75246e-012
0.0017464
-2.58682e-012
0.00659711
-7.72715e-014
0.0219579
5.10259e-013
0.0620426
4.7029e-013
0.150167
-1.32783e-013
0.313229
3.53495e-013
0.562797
1.98597e-012
0.873191
2.15894e-012
1.19339
-5.98854e-013
1.48301
-2.94431e-013
1.72751
-1.44551e-013
1.92024
6.25722e-013
2.07775
-1.41442e-013
2.19322
-1.75415e-014
2.26361
-2.94653e-013
2.33348
-3.89244e-013
2.38848
-5.62106e-013
2.40281
-3.03646e-013
2.38736
-2.31815e-013
2.37227
-1.58651e-013
2.39285
-3.24185e-014
2.41829
8.61533e-014
2.42784
1.54543e-013
2.41568
2.80276e-013
2.40708
2.53353e-013
2.37338
2.07945e-013
2.24324
1.45162e-013
1.98395
1.16851e-013
1.783
1.97564e-013
1.65576
1.46883e-013
1.57325
2.498e-015
1.52733
-1.62093e-014
1.50255
-8.55427e-014
1.48938
-1.39222e-013
1.48163
-2.42029e-014
1.47365
-1.34726e-013
1.47081
-5.84088e-013
1.47284
8.49432e-013
1.46398
9.40636e-013
1.45838
1.39055e-013
1.4472
-9.28257e-013
1.4172
-2.81536e-012
1.35965
-7.6546e-012
1.23934
-2.38226e-011
0.937304
-2.46318e-011
0.209595
-5.12829e-010
0.0447616
3.26507e-012
0.00859367
-4.19279e-009
0.00167068
-2.4457e-009
-2.04831e-008
2.0504e-011
-1.35447e-012
1.74701e-010
-1.7879e-012
1.47709e-009
9.23706e-013
1.08832e-008
-1.21236e-013
7.87606e-008
1.8674e-012
5.03085e-007
1.3145e-013
3.08668e-006
7.45182e-013
1.68812e-005
2.27374e-013
8.67274e-005
-4.13714e-012
0.000399272
-2.83018e-012
0.00168997
-2.85727e-012
0.00638394
2.22933e-013
0.0212484
-2.56239e-013
0.0600379
6.41709e-013
0.145315
-1.69198e-013
0.303108
7.776e-013
0.544612
2.92344e-012
0.844976
3.2232e-012
1.15483
-6.08624e-013
1.4351
-3.13083e-013
1.67169
3.19744e-014
1.85819
3.86136e-013
2.01061
-4.26326e-014
2.12235
-1.04472e-013
2.19047
-3.89133e-013
2.25808
-5.07372e-013
2.3113
-4.78617e-013
2.32517
-1.56097e-013
2.31022
-2.39697e-013
2.29562
-3.36953e-013
2.31553
1.25344e-013
2.34015
-2.85882e-014
2.34939
3.58047e-014
2.33762
2.55018e-013
2.32931
2.44471e-013
2.29669
2.34424e-013
2.17075
1.55931e-013
1.91984
2.16327e-013
1.72539
3.20632e-013
1.60225
2.78555e-013
1.52241
3.86358e-014
1.47798
2.08722e-014
1.454
-3.44169e-015
1.44125
-1.62648e-013
1.43376
-3.09197e-014
1.42603
-1.89793e-013
1.42328
-6.35492e-013
1.42525
8.71692e-013
1.41667
9.94482e-013
1.41125
1.63203e-014
1.40044
-1.3945e-012
1.37141
-4.3297e-012
1.31572
-1.17982e-011
1.1993
-3.67602e-011
0.907018
-3.66604e-011
0.202823
-8.15591e-010
0.0433153
3.50144e-011
0.00831599
-6.78171e-009
0.0016167
-3.81873e-009
-3.37358e-008
1.98433e-011
-1.64491e-012
1.69053e-010
-2.32836e-012
1.42936e-009
1.87805e-012
1.05315e-008
-8.17124e-014
7.62157e-008
2.07878e-012
4.86829e-007
-4.44089e-014
2.98694e-006
-7.32747e-014
1.63358e-005
-1.02141e-013
8.39251e-005
-5.09415e-012
0.000386371
-2.57216e-012
0.00163536
-3.74634e-012
0.00617766
2.79776e-013
0.0205619
-5.95968e-013
0.0580979
1.63203e-012
0.140619
1.87406e-013
0.293314
2.3137e-013
0.527015
3.4186e-012
0.817673
3.13438e-012
1.11751
1.70974e-014
1.38872
-3.03313e-013
1.61768
-1.12355e-013
1.79815
7.68274e-014
1.94565
-1.71418e-013
2.05377
-1.07692e-013
2.11969
-3.4428e-013
2.18512
-3.97904e-013
2.23662
-4.16223e-013
2.25004
-9.17044e-014
2.23557
-3.07532e-013
2.22144
-1.92291e-013
2.24071
1.8574e-013
2.26453
4.34097e-014
2.27348
1.58651e-013
2.26209
2.4164e-013
2.25404
1.53988e-013
2.22248
1.9279e-013
2.10061
2.65288e-013
1.85781
2.59459e-013
1.66964
3.1497e-013
1.55048
3.37952e-013
1.47322
1.98452e-013
1.43022
1.9118e-013
1.40702
1.21958e-013
1.39468
-1.20459e-013
1.38743
-1.16518e-013
1.37996
-9.45355e-014
1.37729
-4.22107e-013
1.3792
5.28577e-013
1.3709
4.46809e-013
1.36565
-1.60483e-013
1.35518
-1.97947e-012
1.32709
-5.82495e-012
1.27321
-1.59777e-011
1.16054
-5.03685e-011
0.87771
-4.73792e-011
0.196269
-1.17708e-009
0.0419157
1.08985e-010
0.00804729
-1.0005e-008
0.00156446
-5.37331e-009
-5.09147e-008
1.92026e-011
-2.08633e-012
1.63597e-010
-2.80176e-012
1.38318e-009
3.16192e-012
1.01912e-008
2.43361e-013
7.3753e-008
1.86606e-012
4.71099e-007
-2.92655e-013
2.89043e-006
-8.39329e-013
1.58079e-005
-3.61489e-013
8.12133e-005
-5.54667e-012
0.000373886
-3.26272e-012
0.00158252
-3.03624e-012
0.00597805
4.7784e-013
0.0198975
-6.14619e-013
0.0562207
2.47269e-012
0.136075
8.65974e-014
0.283836
-1.35003e-013
0.509986
3.87779e-012
0.791252
3.63842e-012
1.08141
-5.52669e-013
1.34385
-1.66533e-014
1.56541
-3.65485e-013
1.74005
-1.65201e-013
1.88278
1.5965e-013
1.98741
7.63833e-014
2.0512
2.66454e-015
2.11451
-3.92686e-013
2.16435
-2.74558e-013
2.17733
-8.80407e-014
2.16333
-1.81077e-013
2.14966
-1.99729e-013
2.16831
9.99201e-014
2.19136
1.70752e-013
2.20002
7.83817e-014
2.189
1.95954e-013
2.18121
2.04059e-013
2.15066
3.4861e-013
2.03274
4.31044e-013
1.79778
3.53217e-013
1.61569
2.63234e-013
1.50038
2.05724e-013
1.42562
4.17055e-013
1.38401
3.89577e-013
1.36156
2.46636e-013
1.34962
-3.10862e-015
1.3426
1.08802e-014
1.33537
-1.92069e-014
1.33279
-2.36144e-013
1.33463
4.94049e-015
1.3266
1.7264e-014
1.32153
-1.46438e-013
1.3114
-2.4723e-012
1.28421
-7.60531e-012
1.23207
-2.06403e-011
1.12304
-6.60823e-011
0.849349
-5.70926e-011
0.189927
-1.62043e-009
0.0405613
2.44283e-010
0.00778726
-1.41146e-008
0.00151391
-7.14661e-009
-7.37255e-008
1.85836e-011
-2.772e-012
1.58309e-010
-2.7196e-012
1.33848e-009
3.37996e-012
9.86194e-009
2.70894e-013
7.13699e-008
2.07612e-012
4.55876e-007
-4.83169e-013
2.79703e-006
-1.32339e-012
1.52971e-005
-2.76668e-013
7.85891e-005
-6.74083e-012
0.000361805
-3.05711e-012
0.00153139
-2.5131e-012
0.00578488
9.82769e-013
0.0192545
-1.68976e-012
0.054404
2.21467e-012
0.131679
-2.03393e-013
0.274665
5.65326e-013
0.493507
3.68061e-012
0.765685
3.79696e-012
1.04646
-4.24771e-013
1.30043
-2.98872e-013
1.51483
-5.03819e-013
1.68382
-1.0747e-013
1.82194
-9.52571e-014
1.9232
2.59348e-013
1.98492
7.93809e-014
2.04619
-2.05058e-013
2.09442
-1.71307e-013
2.10698
1.4666e-013
2.09343
-3.14637e-013
2.0802
-3.91465e-013
2.09824
1.62426e-013
2.12055
1.42775e-013
2.12893
-1.78746e-014
2.11827
1.35503e-013
2.11073
2.04226e-013
2.08117
2.67342e-013
1.96706
2.93598e-013
1.73969
3.61933e-013
1.56348
3.09142e-013
1.4519
2.39808e-013
1.37955
5.80092e-013
1.33929
5.32852e-013
1.31756
3.5616e-013
1.30601
7.78266e-014
1.29922
1.0103e-013
1.29222
7.97695e-014
1.28973
-2.04281e-013
1.29151
-3.9807e-013
1.28374
-1.0153e-013
1.27882
-2.36533e-013
1.26902
-3.26827e-012
1.24272
-9.70346e-012
1.19226
-2.63702e-011
1.08676
-8.49691e-011
0.821905
-6.59585e-011
0.18379
-2.16863e-009
0.0392507
4.68295e-010
0.00753564
-1.9397e-008
0.00146499
-9.14989e-009
-1.04237e-007
1.79857e-011
-3.49853e-012
1.532e-010
-2.93809e-012
1.29524e-009
3.91864e-012
9.54328e-009
2.6823e-013
6.90638e-008
2.32836e-012
4.41146e-007
-8.06022e-013
2.70665e-006
-1.1191e-012
1.48028e-005
-1.24345e-014
7.60497e-005
-6.90115e-012
0.000350114
-2.55129e-012
0.0014819
-2.12008e-012
0.00559796
8.17568e-013
0.0186324
-2.54996e-012
0.0526461
2.29061e-012
0.127424
-4.13003e-013
0.26579
6.81677e-013
0.477561
3.72813e-012
0.740944
3.79918e-012
1.01265
-5.56e-013
1.25841
-2.11386e-013
1.46588
8.54872e-014
1.62942
4.39648e-014
1.76307
-2.22711e-013
1.86105
1.94067e-013
1.92079
-1.20459e-013
1.98007
-2.27263e-013
2.02674
-1.78635e-013
2.0389
1.60427e-013
2.02579
-2.55684e-013
2.01299
-3.61489e-013
2.03044
2.19824e-014
2.05203
1.46883e-013
2.06014
-6.16174e-014
2.04982
-1.12577e-013
2.04253
1.93734e-014
2.01392
1.73084e-013
1.9035
2.91656e-013
1.68348
3.57436e-013
1.51296
3.47167e-013
1.40499
3.81639e-013
1.33497
6.59917e-013
1.29601
6.2228e-013
1.27499
3.75033e-013
1.26381
8.47655e-014
1.25724
1.73417e-013
1.25046
2.13551e-013
1.24805
-1.02141e-014
1.24977
-5.20528e-013
1.24226
-1.11133e-013
1.2375
-4.10838e-013
1.22802
-4.11116e-012
1.20256
-1.20445e-011
1.15373
-3.27816e-011
1.05164
-1.06456e-010
0.795348
-7.22739e-011
0.177852
-2.84588e-009
0.0379824
8.1694e-010
0.00729214
-2.61833e-008
0.00141765
-1.13586e-008
-1.44998e-007
1.74055e-011
-4.57501e-012
1.48249e-010
-2.94342e-012
1.25338e-009
3.82716e-012
9.23491e-009
-9.90319e-014
6.68322e-008
3.10996e-012
4.26892e-007
-1.4726e-012
2.6192e-006
-6.82121e-013
1.43245e-005
5.4845e-013
7.35924e-005
-6.65601e-012
0.000338801
-1.89404e-012
0.00143402
-1.87939e-012
0.00541708
1.0747e-013
0.0180303
-2.19602e-012
0.050945
1.79101e-012
0.123306
-4.54303e-013
0.257201
9.00169e-013
0.46213
4.00613e-012
0.717003
3.57181e-012
0.979929
-7.2653e-013
1.21775
3.35509e-013
1.41851
-4.53193e-013
1.57677
2.49134e-013
1.7061
-3.13083e-014
1.80092
3.59712e-014
1.85872
-1.00364e-013
1.91609
-3.56493e-013
1.96125
-2.18381e-013
1.97302
6.07292e-014
1.96033
-2.30593e-013
1.94794
-2.498e-013
1.96484
-8.21565e-015
1.98573
2.07834e-013
1.99357
-1.24456e-013
1.98359
2.44249e-015
1.97653
6.40599e-014
1.94885
1.14853e-013
1.84199
2.66398e-013
1.62908
3.5183e-013
1.46408
5.28522e-013
1.35959
4.70957e-013
1.29184
5.80591e-013
1.25414
5.46951e-013
1.23379
3.48721e-013
1.22297
2.38698e-014
1.21661
7.82152e-014
1.21006
3.24296e-013
1.20773
2.69118e-013
1.20939
-5.17475e-013
1.20212
-7.86038e-014
1.19752
-5.68545e-013
1.18834
-4.94421e-012
1.16371
-1.42042e-011
1.11645
-3.90497e-011
1.01766
-1.29472e-010
0.769648
-7.25747e-011
0.172105
-3.67973e-009
0.0367551
1.33585e-009
0.00705652
-3.48587e-008
0.00137184
-1.36977e-008
-1.99162e-007
1.68474e-011
-4.73399e-012
1.43466e-010
-3.12639e-012
1.21288e-009
4.26326e-012
8.93652e-009
5.77316e-014
6.46727e-008
3.76632e-012
4.13098e-007
-1.58362e-012
2.53456e-006
-5.63993e-013
1.38617e-005
5.86198e-013
7.12145e-005
-7.10232e-012
0.000327854
-9.68114e-013
0.00138768
-2.23466e-012
0.00524204
3.93463e-013
0.0174477
-1.99529e-012
0.0492989
1.28564e-012
0.119322
3.24185e-014
0.248891
1.2097e-012
0.447197
4.23128e-012
0.693835
4.03277e-012
0.948265
-1.09157e-012
1.1784
2.60902e-013
1.37268
-1.01874e-012
1.52582
5.99965e-013
1.65098
-2.77334e-013
1.74273
-1.50324e-013
1.79866
-2.58016e-013
1.85418
-2.88991e-013
1.89788
-2.69007e-013
1.90926
4.88498e-014
1.89699
-1.65756e-013
1.885
-2.49467e-013
1.90135
1.05693e-013
1.92156
2.35478e-013
1.92916
-8.59313e-014
1.91949
-8.16014e-014
1.91266
5.39568e-014
1.88588
2.37255e-013
1.78247
2.52465e-013
1.57644
3.88578e-013
1.41677
4.84224e-013
1.31566
5.56555e-013
1.2501
5.09537e-013
1.21361
4.50251e-013
1.19393
2.57905e-013
1.18346
-9.52571e-014
1.1773
-5.15143e-014
1.17096
3.40561e-013
1.1687
1.61593e-013
1.17031
-2.87326e-013
1.16327
1.65867e-013
1.15882
-6.11899e-013
1.14994
-5.61473e-012
1.1261
-1.62861e-011
1.08038
-4.54452e-011
0.984778
-1.54874e-010
0.744779
-6.61974e-011
0.166544
-4.69933e-009
0.0355675
2.08278e-009
0.00682851
-4.58695e-008
0.00132751
-1.60229e-008
-2.70618e-007
1.63036e-011
-4.28635e-012
1.38829e-010
-3.65663e-012
1.17369e-009
4.30855e-012
8.64776e-009
4.55636e-013
6.2583e-008
4.36629e-012
3.9975e-007
-1.93534e-012
2.45267e-006
-5.73319e-013
1.34138e-005
1.18883e-012
6.89134e-005
-6.85052e-012
0.00031726
-3.02869e-013
0.00134284
-1.61471e-012
0.00507266
6.65246e-013
0.016884
-1.71951e-012
0.0477059
3.3884e-013
0.115467
6.97664e-013
0.240849
1.41975e-012
0.432747
4.59766e-012
0.671416
3.8356e-012
0.917625
-6.44373e-013
1.14032
8.4599e-014
1.32832
-7.84928e-013
1.47651
5.00711e-013
1.59763
-1.55431e-014
1.68642
-2.74447e-013
1.74054
-5.91527e-013
1.79426
-3.37508e-013
1.83656
-3.60489e-013
1.84757
1.42109e-014
1.83569
-1.15463e-014
1.82409
-2.38032e-013
1.83991
2.88214e-013
1.85947
9.69225e-014
1.86682
-1.70419e-013
1.85747
-9.01501e-014
1.85086
1.28564e-013
1.82494
4.62075e-013
1.72488
4.64073e-013
1.5255
4.56191e-013
1.37099
5.70044e-013
1.27315
3.74256e-013
1.2097
3.44946e-013
1.1744
3.0459e-013
1.15535
1.28453e-013
1.14522
-1.55709e-013
1.13926
7.31082e-014
1.13312
2.99316e-013
1.13094
-1.57596e-013
1.1325
6.01186e-014
1.12569
3.45834e-014
1.12138
-7.93088e-013
1.11278
-6.70186e-012
1.08972
-1.86576e-011
1.04547
-5.27863e-011
0.952958
-1.8447e-010
0.720714
-5.26312e-011
0.161163
-5.93752e-009
0.0344182
3.12926e-009
0.00660786
-5.97292e-008
0.00128462
-1.80957e-008
-3.64131e-007
1.57812e-011
-4.25437e-012
1.3435e-010
-3.49409e-012
1.13577e-009
4.20464e-012
8.36833e-009
3.75699e-013
6.05608e-008
4.72422e-012
3.86833e-007
-2.37588e-012
2.37342e-006
2.83773e-013
1.29803e-005
1.03251e-012
6.66867e-005
-6.13198e-012
0.000307009
-2.57128e-013
0.00129945
-1.11156e-012
0.00490875
5.43565e-013
0.0163384
-1.30074e-012
0.0461645
1.74527e-013
0.111736
6.52811e-013
0.233066
1.90337e-012
0.418764
4.47287e-012
0.649721
3.44214e-012
0.887974
-9.15268e-013
1.10348
5.23137e-013
1.2854
-9.01723e-013
1.42881
7.57616e-013
1.54601
1.59206e-013
1.63192
-2.50022e-013
1.6843
-4.69624e-013
1.73629
-3.09308e-013
1.77721
-3.91354e-013
1.78787
-2.32259e-013
1.77638
-2.39808e-014
1.76515
-3.30402e-013
1.78046
3.93241e-013
1.79939
-2.16716e-013
1.8065
-2.90989e-013
1.79745
-6.16174e-014
1.79106
2.73781e-013
1.76597
5.19695e-013
1.66914
6.41376e-013
1.47621
6.75238e-013
1.32669
6.31828e-013
1.23201
2.60014e-013
1.17062
4.24938e-013
1.13645
3.89744e-013
1.11802
2.6118e-013
1.10821
4.38538e-014
1.10245
4.28935e-013
1.09651
7.09599e-013
1.09439
-1.37057e-013
1.0959
-1.62204e-013
1.08931
-7.22256e-013
1.08514
-1.23851e-012
1.07683
-8.03296e-012
1.05451
-2.17951e-011
1.01169
-6.13061e-011
0.922166
-2.18251e-010
0.697426
-2.90493e-011
0.155955
-7.42904e-009
0.0333061
4.56272e-009
0.00639435
-7.70227e-008
0.0012431
-1.95587e-008
-4.85489e-007
1.52703e-011
-3.56959e-012
1.30007e-010
-2.70006e-012
1.09907e-009
3.86091e-012
8.09793e-009
4.9738e-014
5.86039e-008
5.10347e-012
3.74334e-007
-2.66009e-012
2.29673e-006
4.47642e-013
1.25609e-005
1.10223e-012
6.45319e-005
-4.84857e-012
0.000297089
-3.09974e-013
0.00125747
-1.03206e-012
0.00475014
3.0953e-013
0.0158105
-1.07736e-012
0.0446728
-2.56684e-013
0.108125
7.12319e-013
0.225535
2.91767e-012
0.405233
4.39648e-012
0.628727
3.55005e-012
0.859282
-4.10783e-013
1.06782
5.91971e-013
1.24387
-7.07656e-013
1.38264
1.09446e-012
1.49605
-1.56319e-013
1.57919
-1.84297e-014
1.62988
-6.50813e-013
1.68018
-3.81473e-013
1.71979
-5.47673e-013
1.7301
-2.17826e-013
1.71898
-8.04912e-014
1.70812
-2.32703e-013
1.72293
1.15907e-013
1.74125
2.38698e-014
1.74813
-1.14575e-013
1.73937
-7.04992e-014
1.73318
3.94795e-013
1.70891
7.34302e-013
1.61521
8.4599e-013
1.42851
7.01883e-013
1.28382
5.16698e-013
1.1922
3.03757e-013
1.13279
6.52145e-013
1.09973
6.27887e-013
1.08189
5.18197e-013
1.0724
4.02567e-013
1.06683
7.29805e-013
1.06108
1.41925e-012
1.05903
2.0467e-013
1.06049
-9.82436e-013
1.05411
-1.82954e-012
1.05008
-1.97914e-012
1.04203
-9.62519e-012
1.02043
-2.47806e-011
0.978997
-7.01497e-011
0.892368
-2.55283e-010
0.674891
8.73762e-012
0.150916
-9.20947e-009
0.0322299
6.48789e-009
0.00618773
-9.84093e-008
0.00120293
-1.98994e-008
-6.41668e-007
1.47818e-011
-4.5306e-012
1.25812e-010
-2.33413e-012
1.06356e-009
3.32001e-012
7.83627e-009
-1.54543e-013
5.67103e-008
5.13012e-012
3.62238e-007
-2.81641e-012
2.22251e-006
2.57572e-013
1.21551e-005
1.10223e-012
6.24467e-005
-4.51106e-012
0.000287489
2.82885e-013
0.00121683
-5.17364e-013
0.00459665
4.5608e-013
0.0152996
-7.82485e-013
0.0432293
-4.40092e-013
0.104631
9.65006e-013
0.218248
2.8102e-012
0.392139
3.80895e-012
0.608411
3.25784e-012
0.831517
5.9952e-014
1.03332
5.96856e-013
1.20368
-5.43565e-013
1.33796
1.05294e-012
1.44771
-2.911e-013
1.52817
1.95177e-013
1.57721
-3.61933e-013
1.62589
-3.35509e-013
1.66422
-5.57332e-013
1.6742
4.26326e-014
1.66343
-7.01661e-014
1.65292
-2.00839e-013
1.66726
-3.14193e-014
1.68499
2.4003e-013
1.69164
-1.55209e-013
1.68317
-2.29816e-014
1.67718
4.49196e-013
1.65369
7.38409e-013
1.56302
8.41882e-013
1.38235
7.7327e-013
1.24234
5.89973e-013
1.15368
4.45866e-013
1.09619
1.00742e-012
1.06419
9.44356e-013
1.04693
8.08187e-013
1.03775
7.11153e-013
1.03236
9.28868e-013
1.02679
1.69487e-012
1.02481
1.86684e-013
1.02623
-1.67699e-012
1.02005
-2.28795e-012
1.01615
-2.70123e-012
1.00836
-1.11806e-011
0.98746
-2.76908e-011
0.947363
-7.85048e-011
0.863534
-2.93872e-010
0.653084
6.58911e-011
0.146039
-1.13147e-008
0.0311885
9.02846e-009
0.00598779
-1.24623e-007
0.00116406
-1.8411e-008
-8.41002e-007
1.43021e-011
-4.23306e-012
1.21745e-010
-2.19735e-012
1.02919e-009
2.72493e-012
7.58306e-009
-4.55636e-013
5.48779e-008
5.5973e-012
3.50533e-007
-3.02602e-012
2.1507e-006
6.51923e-013
1.17623e-005
1.01696e-012
6.04289e-005
-3.47367e-012
0.0002782
7.51399e-013
0.00117752
-2.95319e-013
0.00444813
7.28306e-013
0.0148052
-1.70086e-013
0.0418325
-6.70575e-013
0.101251
1.51168e-012
0.211196
2.38698e-012
0.379468
3.78408e-012
0.588752
2.87192e-012
0.804649
1.53211e-013
0.999929
4.45421e-013
1.16478
-2.36922e-013
1.29473
7.92477e-013
1.40093
-2.56017e-013
1.47879
3.60156e-013
1.52625
-2.07612e-013
1.57336
-2.12719e-013
1.61044
-2.75779e-013
1.6201
8.84848e-014
1.60969
-1.69087e-013
1.59951
-2.12497e-013
1.61339
1.71085e-013
1.63054
-3.10862e-014
1.63698
-1.17351e-013
1.62878
-7.9825e-014
1.62299
4.89497e-013
1.60026
7.65832e-013
1.51251
9.13936e-013
1.33769
8.90732e-013
1.2022
7.92699e-013
1.1164
4.63074e-013
1.06077
1.23201e-012
1.02981
1.19904e-012
1.0131
1.06581e-012
1.00422
8.6775e-013
0.998998
8.95617e-013
0.993615
1.27492e-012
0.991699
-4.52804e-013
0.993068
-1.72701e-012
0.987093
-1.75182e-012
0.983316
-3.12084e-012
0.975779
-1.24784e-011
0.955553
-2.99283e-011
0.916752
-8.61395e-011
0.835632
-3.33923e-010
0.631981
1.46781e-010
0.141321
-1.37818e-008
0.0301807
1.2328e-008
0.00579431
-1.5647e-007
0.00112644
-1.4148e-008
-1.09336e-006
1.38461e-011
-4.18776e-012
1.17816e-010
-3.00737e-012
9.9594e-010
2.27729e-012
7.33804e-009
-2.47802e-013
5.31046e-008
5.64526e-012
3.39207e-007
-2.85105e-012
2.08121e-006
1.60849e-012
1.13822e-005
9.62785e-013
5.84763e-005
-2.46825e-012
0.000269211
1.3074e-012
0.00113947
-1.66089e-013
0.0043044
3.78364e-013
0.0143268
-3.19744e-014
0.0404808
-3.84581e-013
0.097979
2.07478e-012
0.204372
2.26219e-012
0.367207
3.48122e-012
0.569729
2.66143e-012
0.778649
5.81757e-014
0.967619
5.12923e-013
1.12715
-2.81997e-013
1.25289
8.14016e-013
1.35566
-3.04645e-013
1.43101
3.45279e-013
1.47693
-2.16493e-013
1.52252
-5.86198e-014
1.55841
-1.58762e-013
1.56775
2.1938e-013
1.55767
-1.62981e-013
1.54783
-1.61871e-013
1.56125
1.72751e-013
1.57785
3.54161e-014
1.58409
-5.14033e-014
1.57615
-7.61613e-014
1.57054
3.50275e-013
1.54855
6.01741e-013
1.46364
8.41327e-013
1.29446
9.7311e-013
1.16335
9.09051e-013
1.08033
4.63407e-013
1.02649
1.34071e-012
0.996533
1.35514e-012
0.980368
1.18872e-012
0.971772
8.39662e-013
0.966718
7.7377e-013
0.961509
4.66183e-013
0.959655
-1.53144e-012
0.96098
-9.85045e-013
0.955198
-6.44484e-013
0.951543
-3.11118e-012
0.944249
-1.35516e-011
0.924677
-3.17602e-011
0.88713
-9.30771e-011
0.808631
-3.76045e-010
0.61156
2.54493e-010
0.136754
-1.6648e-008
0.0292055
1.65507e-008
0.00560708
-1.94828e-007
0.00109003
-5.86949e-009
-1.41031e-006
1.33951e-011
-3.86535e-012
1.14007e-010
-3.43636e-012
9.63759e-010
1.67333e-012
7.10093e-009
-3.11751e-013
5.13887e-008
5.2518e-012
3.28246e-007
-3.38485e-012
2.01396e-006
2.07123e-012
1.10145e-005
7.89591e-013
5.65868e-005
-1.85807e-012
0.000260512
2.11031e-012
0.00110265
-3.09974e-013
0.00416531
2.44249e-013
0.0138639
-4.4853e-014
0.0391728
-3.84581e-013
0.0948131
1.98774e-012
0.197768
1.60494e-012
0.355342
3.13927e-012
0.551319
2.52154e-012
0.753489
5.14699e-013
0.936353
2.75335e-013
1.09073
-9.72555e-014
1.21241
8.28004e-013
1.31186
1.75193e-013
1.38477
2.18048e-013
1.42921
-3.73035e-014
1.47332
1.11022e-014
1.50805
1.3145e-013
1.5171
3.51275e-013
1.50734
-7.91589e-014
1.49782
3.37508e-014
1.51081
2.3237e-013
1.52687
3.13083e-014
1.5329
-3.88578e-015
1.52522
3.59712e-014
1.5198
2.81108e-013
1.49851
5.78093e-013
1.41635
8.69638e-013
1.25263
9.62008e-013
1.12576
8.20011e-013
1.04542
6.73128e-013
0.993324
1.2581e-012
0.964333
1.3145e-012
0.94869
1.13221e-012
0.940372
8.33222e-013
0.935481
7.81597e-013
0.930441
-3.2474e-014
0.928647
-2.31842e-012
0.929928
-8.4488e-014
0.924334
-7.66054e-015
0.920797
-2.99111e-012
0.913739
-1.4417e-011
0.894799
-3.31678e-011
0.858465
-9.97639e-011
0.782502
-4.2032e-010
0.5918
3.93326e-010
0.132335
-1.99503e-008
0.0282618
2.18814e-008
0.0054259
-2.40632e-007
0.0010548
7.97121e-009
-1.80533e-006
1.29681e-011
-3.71614e-012
1.10328e-010
-3.90532e-012
9.3262e-010
3.53495e-013
6.87149e-009
-3.95239e-013
4.97282e-008
4.55103e-012
3.1764e-007
-3.88667e-012
1.94888e-006
1.97264e-012
1.06586e-005
3.10862e-013
5.47584e-005
-1.18305e-012
0.000252094
2.51177e-012
0.00106702
-4.45866e-013
0.00403072
3.49054e-013
0.0134159
-1.6076e-013
0.037907
-8.33555e-013
0.0917495
1.668e-012
0.191378
1.5814e-012
0.34386
3.2534e-012
0.533505
2.35811e-012
0.729142
5.26246e-013
0.906098
3.05977e-013
1.05548
2.84217e-014
1.17323
1.23324e-012
1.26947
5.51337e-013
1.34002
1.63203e-013
1.38303
3.81917e-014
1.42572
6.43929e-015
1.45932
6.92779e-014
1.46808
2.16493e-013
1.45864
6.76126e-014
1.44942
1.20903e-013
1.46199
3.96905e-013
1.47753
-1.31228e-013
1.48337
-1.66533e-015
1.47594
-2.88658e-015
1.47069
2.42584e-013
1.45009
5.17697e-013
1.37058
8.07132e-013
1.21216
1.05294e-012
1.08938
9.94982e-013
1.01164
7.11209e-013
0.961227
1.10945e-012
0.933173
1.19305e-012
0.918036
1.07692e-012
0.909986
9.35696e-013
0.905254
9.88876e-013
0.900376
1.51656e-013
0.89864
-2.10698e-012
0.89988
8.6875e-014
0.894467
-1.41054e-013
0.891044
-3.09153e-012
0.884214
-1.56141e-011
0.865886
-3.44678e-011
0.830726
-1.06159e-010
0.757218
-4.66647e-010
0.572677
5.67558e-010
0.128059
-2.37222e-008
0.0273486
2.85259e-008
0.00525057
-2.94874e-007
0.00102071
2.94061e-008
-2.294e-006
1.25443e-011
-5.08837e-012
1.06761e-010
-3.96927e-012
9.02486e-010
-1.2168e-013
6.64945e-009
-7.50511e-013
4.81214e-008
3.45146e-012
3.07377e-007
-3.89822e-012
1.88591e-006
1.72395e-012
1.03142e-005
-1.13687e-013
5.2989e-005
-1.04983e-012
0.000243949
2.71694e-012
0.00103254
-1.13776e-012
0.00390048
1.84741e-013
0.0129824
-3.37508e-013
0.0366822
-1.1573e-012
0.0887849
1.29452e-012
0.185194
1.79723e-012
0.332749
3.14593e-012
0.516266
2.63078e-012
0.705582
1.41664e-013
0.87682
6.31051e-013
1.02138
-7.41629e-014
1.13532
1.16485e-012
1.22845
6.91225e-013
1.29672
3.78364e-013
1.33834
1.52989e-013
1.37965
9.34808e-014
1.41217
1.44329e-014
1.42064
3.4861e-013
1.4115
8.4488e-014
1.40258
1.11022e-013
1.41475
2.18825e-013
1.42979
5.63993e-014
1.43544
7.14984e-014
1.42825
-3.90799e-014
1.42317
3.08864e-013
1.40324
6.58251e-013
1.3263
8.13349e-013
1.17299
8.24896e-013
1.05418
9.4591e-013
0.978951
8.04024e-013
0.930168
1.07447e-012
0.903021
1.18516e-012
0.888372
1.05316e-012
0.880583
9.74998e-013
0.876003
1.29063e-012
0.871283
9.26481e-013
0.869603
-1.17539e-012
0.870803
-4.47309e-013
0.865565
-9.89764e-013
0.862252
-3.48666e-012
0.855643
-1.68875e-011
0.837907
-3.56033e-011
0.803884
-1.11487e-010
0.73275
-5.13293e-010
0.554173
7.84058e-010
0.123921
-2.79937e-008
0.0264649
3.67054e-008
0.00508091
-3.58581e-007
0.000987711
6.09114e-008
-2.89411e-006
1.21446e-011
-5.23759e-012
1.03315e-010
-3.8467e-012
8.73326e-010
-6.13731e-013
6.4346e-009
-1.12532e-012
4.65665e-008
2.53486e-012
2.97445e-007
-3.58913e-012
1.82497e-006
1.33227e-012
9.98088e-006
-9.37916e-013
5.12769e-005
-3.96128e-013
0.000236066
2.41318e-012
0.000999179
-1.14664e-012
0.00377445
2.45137e-013
0.012563
3.10862e-013
0.0354969
-1.47882e-012
0.085916
1.60583e-012
0.17921
1.62403e-012
0.321997
3.40572e-012
0.499585
2.57527e-012
0.682783
3.9968e-014
0.848488
5.32907e-013
0.988374
-2.75335e-013
1.09864
1.06848e-012
1.18876
5.94857e-013
1.25482
5.06706e-013
1.2951
3.33067e-014
1.33507
8.85958e-014
1.36654
2.57572e-014
1.37473
2.97762e-013
1.3659
2.24265e-013
1.35726
1.73195e-013
1.36904
2.17604e-013
1.38359
8.07132e-014
1.38906
7.4718e-014
1.3821
-1.34559e-013
1.37718
3.93352e-013
1.3579
7.15872e-013
1.28344
8.29448e-013
1.13509
7.69051e-013
1.02012
9.15379e-013
0.947319
8.5798e-013
0.900112
1.07347e-012
0.873842
1.1916e-012
0.859667
1.0999e-012
0.852129
1.09168e-012
0.847698
1.50235e-012
0.84313
1.68476e-012
0.841505
-5.94413e-013
0.842666
-9.89431e-013
0.837596
-1.20953e-012
0.834391
-3.94557e-012
0.827995
-1.79884e-011
0.810833
-3.56258e-011
0.777908
-1.1462e-010
0.709074
-5.58414e-010
0.536266
1.04974e-009
0.119917
-3.27895e-008
0.0256098
4.6659e-008
0.00491672
-4.32804e-007
0.000955779
1.0551e-007
-3.62592e-006
1.17482e-011
-6.41087e-012
9.99757e-011
-3.8467e-012
8.45107e-010
-1.29852e-012
6.22668e-009
-1.65468e-012
4.50618e-008
1.7879e-012
2.87833e-007
-3.92752e-012
1.766e-006
1.53655e-012
9.65838e-006
-1.93712e-012
4.962e-005
2.13163e-013
0.000228438
2.20268e-012
0.000966894
-1.19638e-012
0.00365249
-5.48006e-013
0.012157
7.62945e-013
0.0343499
-1.46816e-012
0.0831399
1.7284e-012
0.173419
1.55964e-012
0.311593
3.75433e-012
0.483442
2.21645e-012
0.660721
3.65485e-013
0.821071
4.3654e-013
0.956438
-2.52243e-013
1.06314
1.12754e-012
1.15035
5.61107e-013
1.21428
6.49258e-013
1.25325
-2.08722e-014
1.29193
8.85958e-014
1.32238
-7.4829e-014
1.33031
2.46025e-013
1.32176
1.29008e-013
1.31341
2.12497e-013
1.3248
1.12133e-013
1.33889
1.38223e-013
1.34417
7.4718e-014
1.33744
1.27676e-014
1.33268
3.12528e-013
1.31402
6.93334e-013
1.24197
8.72302e-013
1.09841
8.57314e-013
0.987159
8.74856e-013
0.91671
9.94871e-013
0.871028
1.09068e-012
0.845607
1.18694e-012
0.831889
1.16895e-012
0.824595
1.11611e-012
0.820307
1.45939e-012
0.815887
2.20013e-012
0.814314
-9.27147e-013
0.815437
-9.70779e-013
0.810532
-7.89702e-013
0.80743
-4.25832e-012
0.801241
-1.89453e-011
0.784633
-3.48812e-011
0.752773
-1.15587e-010
0.686162
-6.01065e-010
0.518939
1.3698e-009
0.116043
-3.81295e-008
0.0247823
5.8638e-008
0.00475785
-5.18599e-007
0.000924875
1.66839e-007
-4.51225e-006
1.13735e-011
-6.91358e-012
9.67469e-011
-4.09628e-012
8.17801e-010
-1.94245e-012
6.02548e-009
-2.26574e-012
4.36058e-008
8.61533e-013
2.78533e-007
-4.51905e-012
1.70894e-006
1.43974e-012
9.34629e-006
-2.26841e-012
4.80167e-005
5.52447e-013
0.000221057
1.74882e-012
0.000935651
-1.16707e-012
0.00353447
-1.00009e-012
0.0117642
8.19789e-013
0.03324
-1.54277e-012
0.0804535
1.57119e-012
0.167816
1.74616e-012
0.301525
3.08376e-012
0.467821
2.54285e-012
0.639372
5.24913e-013
0.794541
4.98712e-013
0.925533
-3.41949e-014
1.02879
6.75904e-013
1.11318
5.10703e-013
1.17504
6.36602e-013
1.21276
1.77636e-013
1.25019
2.15161e-013
1.27965
8.54872e-014
1.28733
2.62679e-013
1.27905
1.34115e-013
1.27097
1.81188e-013
1.28199
1.16573e-014
1.29562
1.92513e-013
1.30074
1.43663e-013
1.29423
1.03584e-013
1.28962
3.75699e-013
1.27156
7.26419e-013
1.20184
9.02944e-013
1.06292
9.13825e-013
0.955262
9.14491e-013
0.887089
1.02562e-012
0.842883
1.1261e-012
0.818283
1.14064e-012
0.805009
1.01097e-012
0.797951
9.86988e-013
0.793801
1.2369e-012
0.789524
2.56717e-012
0.788002
-1.84919e-012
0.789089
-3.96683e-013
0.784342
-3.05311e-013
0.781341
-4.49973e-012
0.775351
-1.95733e-011
0.75928
-3.2887e-011
0.728449
-1.13885e-010
0.663991
-6.40391e-010
0.502171
1.74893e-009
0.112293
-4.40277e-008
0.0239815
7.29027e-008
0.0046041
-6.17004e-007
0.000894967
2.49218e-007
-5.5786e-006
1.10031e-011
-6.94822e-012
9.36214e-011
-4.19753e-012
7.91376e-010
-3.07843e-012
5.83079e-009
-3.06066e-012
4.21968e-008
2.63789e-013
2.69533e-007
-4.99423e-012
1.65372e-006
1.46994e-012
9.04429e-006
-2.2542e-012
4.64651e-005
6.47482e-013
0.000213914
1.66356e-012
0.000905419
-8.4821e-013
0.00342026
-1.35802e-012
0.0113841
1.21503e-012
0.0321659
-1.51257e-012
0.0778539
1.91047e-012
0.162393
2.22578e-012
0.291782
2.67963e-012
0.452705
2.72982e-012
0.618712
6.8745e-013
0.768867
4.97824e-013
0.895628
-3.16636e-013
0.995546
3.05977e-013