/*--------------------------------*- C++ -*----------------------------------*\
| =========                 |                                                 |
| \\      /  F ield         | OpenFOAM: The Open Source CFD Toolbox           |
|  \\    /   O peration     | Version:  5.x                                   |
|   \\  /    A nd           | Web:      www.OpenFOAM.org                      |
|    \\/     M anipulation  |                                                 |
\*---------------------------------------------------------------------------*/
/*   Windows 32 and 64 bit porting by blueCAPE: http://www.bluecape.com.pt   *\
|  Based on Windows porting (2.0.x v4) by Symscape: http://www.symscape.com   |
\*---------------------------------------------------------------------------*/
FoamFile
{
    version     2.0;
    format      ascii;
    class       volVectorField;
    location    "0.004";
    object      U;
}
// * * * * * * * * * * * * * * * * * * * * * * * * * * * * * * * * * * * * * //

dimensions      [0 1 -1 0 0 0 0];

internalField   nonuniform List<vector> 
10000
(
(1.93459e-010 4.12461e-013 0)
(2.10278e-009 1.18003e-012 0)
(1.74034e-008 -2.41518e-012 0)
(1.4735e-007 -2.06449e-012 0)
(1.06273e-006 1.28475e-012 0)
(7.68294e-006 -4.61244e-014 0)
(4.80035e-005 3.43934e-012 0)
(0.000293093 9.99938e-013 0)
(0.00156641 -4.89501e-013 0)
(0.00796584 -2.55661e-012 0)
(0.0357464 -3.30929e-012 0)
(0.14833 2.082e-013 0)
(0.531714 5.92364e-013 0)
(1.66372 -1.08964e-012 0)
(4.46237 -1.43485e-012 0)
(10.4238 6.85498e-013 0)
(21.1474 4.51955e-012 0)
(37.2937 6.70628e-012 0)
(58.0825 -7.33191e-012 0)
(81.111 3.09034e-012 0)
(105.014 5.69645e-012 0)
(128.311 1.77917e-012 0)
(150.939 -8.50941e-013 0)
(172.37 -3.03125e-012 0)
(192.395 -5.42324e-013 0)
(211.187 -7.08086e-013 0)
(228.1 1.13568e-012 0)
(243.377 1.87715e-012 0)
(256.933 1.84816e-012 0)
(267.79 -4.17129e-013 0)
(276.318 -9.86947e-013 0)
(283.244 -2.12202e-013 0)
(288.471 -1.88711e-012 0)
(291.323 -1.15461e-012 0)
(292.318 -1.39214e-012 0)
(293.391 -1.41946e-012 0)
(294.708 3.22581e-013 0)
(295.349 7.8513e-013 0)
(294.93 7.81802e-013 0)
(293.93 1.81857e-013 0)
(292.754 -1.42716e-012 0)
(291.286 -7.83166e-013 0)
(289.944 -1.39381e-012 0)
(289.331 -5.12446e-013 0)
(289.561 -1.20825e-012 0)
(290.072 1.57273e-013 0)
(290.23 -1.09353e-011 0)
(289.848 1.50351e-011 0)
(288.818 1.44944e-011 0)
(287.475 4.83115e-012 0)
(286.052 -4.41918e-012 0)
(283.51 -2.09728e-011 0)
(277.634 -5.8082e-011 0)
(263.847 -1.97309e-010 0)
(226.471 -2.45171e-010 0)
(134.241 -6.37638e-009 0)
(34.5471 -2.31403e-010 0)
(6.56511 -7.4299e-008 0)
(1.28296 -4.65607e-008 0)
(0.226193 -3.83571e-007 0)
(1.93768e-010 -1.46067e-012 0)
(2.10266e-009 -8.13255e-012 0)
(1.74033e-008 -1.76362e-012 0)
(1.4735e-007 -1.02325e-012 0)
(1.06273e-006 6.32146e-012 0)
(7.68294e-006 -1.01776e-013 0)
(4.80035e-005 6.20004e-013 0)
(0.000293093 -7.19749e-013 0)
(0.00156641 -6.80554e-012 0)
(0.00796584 -4.75755e-012 0)
(0.0357464 -5.60361e-012 0)
(0.14833 -1.26666e-012 0)
(0.531714 2.91019e-012 0)
(1.66372 -4.9046e-013 0)
(4.46237 -9.71019e-013 0)
(10.4238 1.51529e-012 0)
(21.1474 3.66525e-012 0)
(37.2937 3.12049e-012 0)
(58.0825 4.57479e-013 0)
(81.111 -2.07673e-012 0)
(105.014 -4.44483e-013 0)
(128.311 2.95158e-012 0)
(150.939 -1.91279e-012 0)
(172.37 -2.59751e-013 0)
(192.395 -1.36993e-012 0)
(211.187 -3.2046e-012 0)
(228.1 -5.98252e-012 0)
(243.377 -4.22643e-012 0)
(256.933 -3.37697e-012 0)
(267.79 -2.11818e-012 0)
(276.318 -1.93715e-012 0)
(283.244 1.31503e-012 0)
(288.471 3.06358e-012 0)
(291.323 4.2486e-012 0)
(292.318 3.89105e-012 0)
(293.391 3.05123e-012 0)
(294.708 2.60138e-012 0)
(295.349 1.27096e-012 0)
(294.93 2.49769e-012 0)
(293.93 1.6578e-012 0)
(292.754 1.07873e-014 0)
(291.286 2.39302e-013 0)
(289.944 -2.01966e-012 0)
(289.331 -1.60686e-012 0)
(289.561 -2.21679e-012 0)
(290.072 -3.41545e-012 0)
(290.23 -1.79521e-011 0)
(289.848 1.83296e-011 0)
(288.818 2.42607e-011 0)
(287.475 2.29885e-012 0)
(286.052 -2.38533e-011 0)
(283.51 -6.70076e-011 0)
(277.634 -1.85417e-010 0)
(263.847 -6.05124e-010 0)
(226.471 -7.30142e-010 0)
(134.241 -1.9553e-008 0)
(34.5471 -2.89837e-010 0)
(6.56511 -2.29757e-007 0)
(1.28296 -1.41807e-007 0)
(0.226193 -1.19605e-006 0)
(1.93214e-010 -7.64407e-013 0)
(2.1028e-009 -1.16752e-012 0)
(1.74037e-008 9.76189e-013 0)
(1.4735e-007 2.01501e-012 0)
(1.06273e-006 3.88862e-012 0)
(7.68294e-006 -8.76157e-013 0)
(4.80035e-005 3.05779e-012 0)
(0.000293093 -1.46692e-013 0)
(0.00156641 -7.93735e-012 0)
(0.00796584 -9.33748e-012 0)
(0.0357464 -7.06969e-012 0)
(0.14833 7.74291e-013 0)
(0.531714 -6.88961e-014 0)
(1.66372 2.74538e-012 0)
(4.46237 1.40445e-014 0)
(10.4238 4.35108e-013 0)
(21.1474 9.39626e-012 0)
(37.2937 1.25675e-011 0)
(58.0825 -5.27244e-012 0)
(81.111 -2.18525e-013 0)
(105.014 -6.65349e-013 0)
(128.311 3.30541e-012 0)
(150.939 2.47861e-013 0)
(172.37 -2.81932e-014 0)
(192.395 -2.17209e-012 0)
(211.187 -2.74336e-012 0)
(228.1 -2.37388e-012 0)
(243.377 -1.09789e-012 0)
(256.933 -4.46332e-013 0)
(267.79 -1.37968e-012 0)
(276.318 1.0188e-012 0)
(283.244 4.66673e-013 0)
(288.471 1.61469e-013 0)
(291.323 1.98697e-012 0)
(292.318 2.38014e-012 0)
(293.391 2.29304e-012 0)
(294.708 9.37172e-013 0)
(295.349 1.7735e-012 0)
(294.93 4.28408e-012 0)
(293.93 4.64395e-012 0)
(292.754 -4.17848e-014 0)
(291.286 -9.81202e-013 0)
(289.944 -1.67309e-012 0)
(289.331 -4.45707e-012 0)
(289.561 1.23453e-012 0)
(290.072 -3.63304e-012 0)
(290.23 -1.54334e-011 0)
(289.848 2.53595e-011 0)
(288.818 3.23106e-011 0)
(287.475 5.59994e-012 0)
(286.052 -3.17018e-011 0)
(283.51 -1.08164e-010 0)
(277.634 -3.12453e-010 0)
(263.847 -1.03079e-009 0)
(226.471 -1.22906e-009 0)
(134.241 -3.41825e-008 0)
(34.5471 8.51408e-010 0)
(6.56511 -4.0726e-007 0)
(1.28296 -2.44179e-007 0)
(0.226193 -2.15278e-006 0)
(1.93449e-010 -4.2114e-012 0)
(2.10275e-009 -6.1711e-012 0)
(1.74034e-008 2.59587e-012 0)
(1.4735e-007 -2.55712e-012 0)
(1.06273e-006 4.94001e-012 0)
(7.68294e-006 1.47588e-012 0)
(4.80035e-005 4.65532e-013 0)
(0.000293093 9.69315e-013 0)
(0.00156641 -1.24272e-011 0)
(0.00796584 -5.06645e-012 0)
(0.0357464 -9.19044e-012 0)
(0.14833 3.1004e-013 0)
(0.531714 -1.27353e-012 0)
(1.66372 1.4324e-012 0)
(4.46237 -6.08159e-013 0)
(10.4238 4.81285e-012 0)
(21.1474 9.87794e-012 0)
(37.2937 9.63909e-012 0)
(58.0825 1.17404e-012 0)
(81.111 -2.47122e-012 0)
(105.014 8.37724e-013 0)
(128.311 8.30826e-013 0)
(150.939 -8.06837e-013 0)
(172.37 -1.06987e-012 0)
(192.395 -3.36697e-012 0)
(211.187 -4.13825e-012 0)
(228.1 -5.09896e-012 0)
(243.377 -1.30574e-012 0)
(256.933 -4.39563e-012 0)
(267.79 -4.50142e-012 0)
(276.318 1.94734e-012 0)
(283.244 -1.00481e-012 0)
(288.471 6.62674e-013 0)
(291.323 3.91179e-012 0)
(292.318 3.01482e-012 0)
(293.391 2.93331e-012 0)
(294.708 3.0291e-012 0)
(295.349 4.18693e-012 0)
(294.93 5.66776e-012 0)
(293.93 6.98184e-012 0)
(292.754 1.79651e-012 0)
(291.286 1.82533e-012 0)
(289.944 1.34921e-012 0)
(289.331 -4.39399e-012 0)
(289.561 -3.33503e-012 0)
(290.072 -4.87332e-012 0)
(290.23 -1.75547e-011 0)
(289.848 2.12652e-011 0)
(288.818 2.24148e-011 0)
(287.475 -4.02401e-012 0)
(286.052 -5.06916e-011 0)
(283.51 -1.55982e-010 0)
(277.634 -4.50781e-010 0)
(263.847 -1.4864e-009 0)
(226.471 -1.70005e-009 0)
(134.241 -5.13228e-008 0)
(34.5471 4.27791e-009 0)
(6.56511 -6.23762e-007 0)
(1.28296 -3.58797e-007 0)
(0.226193 -3.36607e-006 0)
(1.93167e-010 -2.64878e-012 0)
(2.10305e-009 -3.96058e-012 0)
(1.74038e-008 5.23235e-012 0)
(1.47351e-007 2.00978e-012 0)
(1.06273e-006 3.72853e-012 0)
(7.68294e-006 -1.78044e-012 0)
(4.80035e-005 -7.13141e-013 0)
(0.000293093 -1.45224e-012 0)
(0.00156641 -1.29445e-011 0)
(0.00796584 -8.3775e-012 0)
(0.0357464 -9.41843e-012 0)
(0.14833 1.36863e-012 0)
(0.531714 -1.61051e-012 0)
(1.66372 7.73336e-012 0)
(4.46237 1.67389e-012 0)
(10.4238 -3.20629e-012 0)
(21.1474 1.1862e-011 0)
(37.2937 1.31974e-011 0)
(58.0825 -9.32724e-013 0)
(81.111 6.05147e-014 0)
(105.014 -1.48742e-012 0)
(128.311 6.74161e-016 0)
(150.939 -7.20139e-013 0)
(172.37 -4.63235e-013 0)
(192.395 -8.46888e-013 0)
(211.187 -2.20192e-012 0)
(228.1 -1.5254e-012 0)
(243.377 -4.41186e-013 0)
(256.933 -6.05443e-013 0)
(267.79 2.08754e-013 0)
(276.318 1.34999e-012 0)
(283.244 1.92911e-012 0)
(288.471 2.50647e-012 0)
(291.323 1.29752e-012 0)
(292.318 8.5929e-013 0)
(293.391 2.27287e-012 0)
(294.708 4.2525e-012 0)
(295.349 3.95811e-012 0)
(294.93 4.97931e-012 0)
(293.93 4.63638e-012 0)
(292.754 6.76188e-012 0)
(291.286 7.02561e-012 0)
(289.944 4.6098e-012 0)
(289.331 -8.43703e-013 0)
(289.561 -1.52202e-012 0)
(290.072 -9.03663e-013 0)
(290.23 -5.96373e-012 0)
(289.848 7.87014e-012 0)
(288.818 5.38793e-012 0)
(287.475 -4.54186e-012 0)
(286.052 -6.70686e-011 0)
(283.51 -2.07751e-010 0)
(277.634 -5.9485e-010 0)
(263.847 -1.98791e-009 0)
(226.471 -2.12315e-009 0)
(134.241 -7.21243e-008 0)
(34.5471 1.12456e-008 0)
(6.56511 -8.9735e-007 0)
(1.28296 -4.89417e-007 0)
(0.226193 -4.96313e-006 0)
(1.93393e-010 -6.26564e-012 0)
(2.10302e-009 -6.77762e-012 0)
(1.74037e-008 7.64161e-012 0)
(1.4735e-007 -1.06551e-012 0)
(1.06273e-006 5.03713e-012 0)
(7.68294e-006 -1.12938e-014 0)
(4.80035e-005 -2.7895e-012 0)
(0.000293093 -6.50961e-013 0)
(0.00156641 -1.51444e-011 0)
(0.00796584 -8.62875e-012 0)
(0.0357464 -7.22619e-012 0)
(0.14833 1.04322e-012 0)
(0.531714 -2.42568e-012 0)
(1.66372 5.84473e-012 0)
(4.46237 -9.20391e-013 0)
(10.4238 2.20728e-012 0)
(21.1474 1.36881e-011 0)
(37.2937 1.21383e-011 0)
(58.0825 -2.54751e-012 0)
(81.111 -1.24801e-013 0)
(105.014 -2.36844e-012 0)
(128.311 -1.73063e-012 0)
(150.939 2.11088e-012 0)
(172.37 1.59395e-012 0)
(192.395 8.9978e-013 0)
(211.187 -3.01528e-012 0)
(228.1 -2.68296e-012 0)
(243.377 -7.7009e-013 0)
(256.933 -3.09085e-012 0)
(267.79 -4.00898e-012 0)
(276.318 1.16631e-012 0)
(283.244 1.58809e-012 0)
(288.471 -5.91706e-013 0)
(291.323 3.73442e-012 0)
(292.318 4.0552e-012 0)
(293.391 5.52375e-012 0)
(294.708 6.13959e-012 0)
(295.349 5.92399e-012 0)
(294.93 4.8425e-012 0)
(293.93 3.25084e-012 0)
(292.754 1.00606e-011 0)
(291.286 9.62606e-012 0)
(289.944 6.52607e-012 0)
(289.331 7.65965e-013 0)
(289.561 1.69339e-012 0)
(290.072 1.75008e-014 0)
(290.23 -6.23128e-012 0)
(289.848 -7.4009e-012 0)
(288.818 -3.97508e-012 0)
(287.475 -4.8184e-012 0)
(286.052 -8.49171e-011 0)
(283.51 -2.66351e-010 0)
(277.634 -7.618e-010 0)
(263.847 -2.58062e-009 0)
(226.471 -2.52052e-009 0)
(134.241 -9.77923e-008 0)
(34.5471 2.32541e-008 0)
(6.56511 -1.24821e-006 0)
(1.28296 -6.3799e-007 0)
(0.226192 -7.09556e-006 0)
(1.93154e-010 -5.07165e-012 0)
(2.10355e-009 -4.84914e-012 0)
(1.7404e-008 7.27435e-012 0)
(1.4735e-007 1.88544e-012 0)
(1.06273e-006 3.81509e-012 0)
(7.68294e-006 -2.00603e-012 0)
(4.80035e-005 -3.53167e-012 0)
(0.000293093 -8.03451e-013 0)
(0.00156641 -1.70414e-011 0)
(0.00796584 -6.66082e-012 0)
(0.0357464 -5.68188e-012 0)
(0.14833 4.50361e-012 0)
(0.531714 -6.32874e-012 0)
(1.66372 7.32977e-012 0)
(4.46237 -2.33404e-013 0)
(10.4238 1.39422e-012 0)
(21.1474 1.09742e-011 0)
(37.2937 1.41934e-011 0)
(58.0825 -1.19219e-012 0)
(81.111 -2.57705e-012 0)
(105.014 -1.65313e-012 0)
(128.311 8.22703e-013 0)
(150.939 -2.81613e-012 0)
(172.37 1.31058e-012 0)
(192.395 2.50306e-013 0)
(211.187 -2.32158e-013 0)
(228.1 4.59878e-014 0)
(243.377 2.94652e-012 0)
(256.933 -2.16185e-012 0)
(267.79 -3.39594e-012 0)
(276.318 1.74548e-012 0)
(283.244 1.5735e-012 0)
(288.471 2.52717e-013 0)
(291.323 -1.07474e-012 0)
(292.318 3.8346e-013 0)
(293.391 1.76169e-012 0)
(294.708 2.19222e-012 0)
(295.349 4.24591e-012 0)
(294.93 4.44144e-012 0)
(293.93 6.59767e-012 0)
(292.754 1.36159e-011 0)
(291.286 1.38901e-011 0)
(289.944 9.53316e-012 0)
(289.331 2.53468e-012 0)
(289.561 3.40894e-012 0)
(290.072 4.20142e-012 0)
(290.23 -4.23817e-012 0)
(289.848 -1.33699e-011 0)
(288.818 -1.18289e-012 0)
(287.475 -9.24086e-012 0)
(286.052 -1.10909e-010 0)
(283.51 -3.35893e-010 0)
(277.634 -9.60001e-010 0)
(263.847 -3.27141e-009 0)
(226.471 -2.87293e-009 0)
(134.241 -1.29538e-007 0)
(34.5471 4.24982e-008 0)
(6.56511 -1.69958e-006 0)
(1.28296 -8.0405e-007 0)
(0.226192 -9.94928e-006 0)
(1.9338e-010 -8.44369e-012 0)
(2.10342e-009 -6.84211e-012 0)
(1.74039e-008 8.99457e-012 0)
(1.4735e-007 -6.90335e-013 0)
(1.06273e-006 6.65774e-012 0)
(7.68294e-006 -2.13411e-012 0)
(4.80035e-005 -1.77425e-012 0)
(0.000293093 6.34735e-013 0)
(0.00156641 -1.72963e-011 0)
(0.00796584 -6.78592e-012 0)
(0.0357464 -5.78556e-012 0)
(0.14833 -4.71513e-013 0)
(0.531714 -7.44415e-012 0)
(1.66372 5.62601e-012 0)
(4.46237 -1.78297e-012 0)
(10.4238 2.94578e-012 0)
(21.1474 1.32699e-011 0)
(37.2937 1.26707e-011 0)
(58.0825 -2.39012e-012 0)
(81.111 1.00072e-012 0)
(105.014 2.24343e-012 0)
(128.311 -4.1933e-013 0)
(150.939 5.38175e-013 0)
(172.37 1.01412e-012 0)
(192.395 -1.55733e-012 0)
(211.187 -3.14817e-012 0)
(228.1 -2.70678e-012 0)
(243.377 -3.62379e-014 0)
(256.933 -2.66035e-012 0)
(267.79 -3.52205e-012 0)
(276.318 -1.19701e-012 0)
(283.244 1.56118e-012 0)
(288.471 -1.62699e-012 0)
(291.323 -9.832e-013 0)
(292.318 2.04996e-013 0)
(293.391 1.83348e-012 0)
(294.708 4.63743e-012 0)
(295.349 6.2349e-012 0)
(294.93 8.39678e-012 0)
(293.93 7.51379e-012 0)
(292.754 1.32182e-011 0)
(291.286 1.31846e-011 0)
(289.944 8.55578e-012 0)
(289.331 1.696e-012 0)
(289.561 4.47403e-012 0)
(290.072 7.38626e-012 0)
(290.23 3.70432e-012 0)
(289.848 -1.45248e-011 0)
(288.818 -4.45189e-012 0)
(287.475 -1.31356e-011 0)
(286.052 -1.33338e-010 0)
(283.51 -4.02517e-010 0)
(277.634 -1.16784e-009 0)
(263.847 -4.0396e-009 0)
(226.471 -3.08806e-009 0)
(134.241 -1.68719e-007 0)
(34.5471 7.17829e-008 0)
(6.56511 -2.27841e-006 0)
(1.28295 -9.83585e-007 0)
(0.226191 -1.37542e-005 0)
(1.93234e-010 -9.19196e-012 0)
(2.10412e-009 -5.69223e-012 0)
(1.74041e-008 7.3417e-012 0)
(1.4735e-007 -3.07227e-014 0)
(1.06273e-006 7.14818e-012 0)
(7.68294e-006 -4.09769e-012 0)
(4.80035e-005 -1.39369e-012 0)
(0.000293093 1.53626e-012 0)
(0.00156641 -1.63489e-011 0)
(0.00796584 -2.85482e-012 0)
(0.0357464 -4.51113e-012 0)
(0.14833 1.21503e-012 0)
(0.531714 -5.57988e-012 0)
(1.66372 4.92266e-012 0)
(4.46237 -9.07199e-013 0)
(10.4238 2.79468e-012 0)
(21.1474 1.31183e-011 0)
(37.2937 1.28633e-011 0)
(58.0825 -3.79584e-012 0)
(81.111 1.92298e-012 0)
(105.014 -6.52708e-012 0)
(128.311 3.03386e-012 0)
(150.939 -9.54203e-013 0)
(172.37 -3.86323e-013 0)
(192.395 1.34876e-013 0)
(211.187 -1.68618e-012 0)
(228.1 -1.0943e-012 0)
(243.377 9.39316e-013 0)
(256.933 -1.49504e-012 0)
(267.79 -1.69871e-012 0)
(276.318 1.00979e-012 0)
(283.244 2.83607e-012 0)
(288.471 -1.27967e-012 0)
(291.323 8.95281e-013 0)
(292.318 1.01558e-012 0)
(293.391 1.41049e-012 0)
(294.708 2.7684e-012 0)
(295.349 4.73822e-012 0)
(294.93 8.34324e-012 0)
(293.93 1.04696e-011 0)
(292.754 1.17725e-011 0)
(291.286 1.17434e-011 0)
(289.944 7.95327e-012 0)
(289.331 -4.1241e-013 0)
(289.561 -8.55448e-013 0)
(290.072 1.00924e-011 0)
(290.23 1.01297e-011 0)
(289.848 -1.47294e-011 0)
(288.818 1.38499e-013 0)
(287.475 -1.94397e-011 0)
(286.052 -1.60407e-010 0)
(283.51 -4.72947e-010 0)
(277.634 -1.3758e-009 0)
(263.847 -4.86726e-009 0)
(226.471 -3.05624e-009 0)
(134.241 -2.16813e-007 0)
(34.5471 1.1462e-007 0)
(6.56511 -3.01604e-006 0)
(1.28295 -1.16754e-006 0)
(0.22619 -1.87944e-005 0)
(1.93458e-010 -1.03844e-011 0)
(2.104e-009 -6.87616e-012 0)
(1.74041e-008 1.003e-011 0)
(1.4735e-007 3.05534e-013 0)
(1.06273e-006 9.9558e-012 0)
(7.68294e-006 -3.89388e-012 0)
(4.80035e-005 -1.27821e-012 0)
(0.000293093 1.77704e-012 0)
(0.00156641 -1.83695e-011 0)
(0.00796584 -2.36755e-012 0)
(0.0357464 -6.47919e-012 0)
(0.14833 5.99088e-013 0)
(0.531714 -5.16416e-012 0)
(1.66372 1.84614e-012 0)
(4.46237 1.25216e-012 0)
(10.4238 4.50461e-012 0)
(21.1474 1.46958e-011 0)
(37.2937 1.51994e-011 0)
(58.0825 -3.72571e-012 0)
(81.111 -5.92886e-014 0)
(105.014 -2.9387e-012 0)
(128.311 2.87052e-012 0)
(150.939 -1.75915e-012 0)
(172.37 -1.38392e-012 0)
(192.395 -3.87851e-012 0)
(211.187 -2.80216e-012 0)
(228.1 -2.78222e-012 0)
(243.377 7.59307e-014 0)
(256.933 -1.34685e-012 0)
(267.79 -2.86791e-012 0)
(276.318 1.15573e-012 0)
(283.244 2.58e-012 0)
(288.471 -3.74062e-013 0)
(291.323 -2.33326e-012 0)
(292.318 4.34496e-013 0)
(293.391 4.27572e-012 0)
(294.708 3.83969e-012 0)
(295.349 5.66409e-012 0)
(294.93 8.76717e-012 0)
(293.93 1.00657e-011 0)
(292.754 8.69552e-012 0)
(291.286 8.05082e-012 0)
(289.944 3.69762e-012 0)
(289.331 -4.07866e-012 0)
(289.561 -1.30386e-012 0)
(290.072 7.42424e-012 0)
(290.23 3.31318e-013 0)
(289.848 -2.24118e-012 0)
(288.818 8.0818e-012 0)
(287.475 -1.80186e-011 0)
(286.052 -1.81933e-010 0)
(283.51 -5.37815e-010 0)
(277.634 -1.60424e-009 0)
(263.847 -5.82121e-009 0)
(226.471 -2.78854e-009 0)
(134.241 -2.75433e-007 0)
(34.5471 1.75447e-007 0)
(6.56511 -3.94868e-006 0)
(1.28295 -1.34191e-006 0)
(0.226188 -2.54194e-005 0)
(1.93337e-010 -7.24511e-012 0)
(2.10474e-009 -7.94067e-012 0)
(1.74043e-008 8.73619e-012 0)
(1.4735e-007 1.18945e-012 0)
(1.06273e-006 9.52256e-012 0)
(7.68294e-006 -4.43144e-012 0)
(4.80035e-005 -1.07302e-012 0)
(0.000293093 3.38295e-012 0)
(0.00156641 -1.58852e-011 0)
(0.00796584 4.62038e-013 0)
(0.0357464 -1.98362e-012 0)
(0.14833 3.38806e-012 0)
(0.531714 -4.88577e-012 0)
(1.66372 4.69733e-013 0)
(4.46237 2.72843e-012 0)
(10.4238 4.29321e-012 0)
(21.1474 1.45209e-011 0)
(37.2937 1.20083e-011 0)
(58.0825 -1.6475e-012 0)
(81.111 9.70986e-013 0)
(105.014 -4.01956e-012 0)
(128.311 2.51804e-012 0)
(150.939 1.5376e-012 0)
(172.37 -2.02427e-012 0)
(192.395 -3.47872e-012 0)
(211.187 -1.76873e-012 0)
(228.1 -3.0568e-012 0)
(243.377 4.79171e-014 0)
(256.933 1.01419e-012 0)
(267.79 -2.09188e-012 0)
(276.318 4.89091e-012 0)
(283.244 -7.27762e-013 0)
(288.471 -3.58088e-012 0)
(291.323 -4.62845e-014 0)
(292.318 2.65173e-012 0)
(293.391 6.27231e-012 0)
(294.708 7.49419e-012 0)
(295.349 8.55418e-012 0)
(294.93 1.07836e-011 0)
(293.93 4.65616e-012 0)
(292.754 7.17131e-012 0)
(291.286 6.61713e-012 0)
(289.944 3.20305e-012 0)
(289.331 -2.12778e-012 0)
(289.561 5.93717e-012 0)
(290.072 9.22805e-012 0)
(290.23 -7.73725e-012 0)
(289.848 5.93117e-012 0)
(288.818 -8.15724e-012 0)
(287.475 -3.05427e-011 0)
(286.052 -2.22859e-010 0)
(283.51 -6.23193e-010 0)
(277.634 -1.85945e-009 0)
(263.847 -6.90871e-009 0)
(226.471 -2.21327e-009 0)
(134.241 -3.46352e-007 0)
(34.5471 2.5971e-007 0)
(6.56511 -5.11778e-006 0)
(1.28295 -1.48478e-006 0)
(0.226186 -3.40556e-005 0)
(1.93445e-010 -8.94316e-012 0)
(2.10448e-009 -5.97854e-012 0)
(1.74043e-008 8.64202e-012 0)
(1.4735e-007 6.24874e-013 0)
(1.06273e-006 1.11965e-011 0)
(7.68294e-006 -6.53872e-012 0)
(4.80035e-005 2.20985e-012 0)
(0.000293093 1.85988e-012 0)
(0.00156641 -1.42452e-011 0)
(0.00796584 -1.82009e-012 0)
(0.0357464 -4.12279e-012 0)
(0.14833 -6.38886e-013 0)
(0.531714 -2.74363e-012 0)
(1.66372 3.64322e-013 0)
(4.46237 1.4707e-012 0)
(10.4238 7.76179e-012 0)
(21.1474 1.5313e-011 0)
(37.2937 1.28916e-011 0)
(58.0825 -4.86888e-012 0)
(81.111 2.94807e-012 0)
(105.014 -4.12177e-012 0)
(128.311 5.05882e-012 0)
(150.939 3.52659e-013 0)
(172.37 -7.22144e-013 0)
(192.395 -3.03027e-012 0)
(211.187 -3.18122e-012 0)
(228.1 -3.27707e-012 0)
(243.377 -3.43968e-012 0)
(256.933 -1.58397e-012 0)
(267.79 -3.8954e-012 0)
(276.318 2.92154e-012 0)
(283.244 -3.23852e-012 0)
(288.471 -2.36707e-012 0)
(291.323 -1.48471e-012 0)
(292.318 3.43443e-012 0)
(293.391 7.16268e-012 0)
(294.708 9.82947e-012 0)
(295.349 1.01777e-011 0)
(294.93 9.06498e-012 0)
(293.93 5.54887e-012 0)
(292.754 1.0876e-011 0)
(291.286 1.12003e-011 0)
(289.944 8.81618e-012 0)
(289.331 4.77085e-012 0)
(289.561 1.48716e-011 0)
(290.072 2.89492e-011 0)
(290.23 1.07058e-012 0)
(289.848 -1.33557e-011 0)
(288.818 -3.41375e-011 0)
(287.475 -4.41476e-011 0)
(286.052 -2.63138e-010 0)
(283.51 -7.20385e-010 0)
(277.634 -2.15013e-009 0)
(263.847 -8.13253e-009 0)
(226.471 -1.20597e-009 0)
(134.241 -4.31408e-007 0)
(34.5471 3.74002e-007 0)
(6.56511 -6.57031e-006 0)
(1.28295 -1.56304e-006 0)
(0.226183 -4.52192e-005 0)
(1.93435e-010 -6.08706e-012 0)
(2.10522e-009 -5.8257e-012 0)
(1.74045e-008 8.11408e-012 0)
(1.4735e-007 -5.10327e-013 0)
(1.06273e-006 1.18283e-011 0)
(7.68294e-006 -5.51268e-012 0)
(4.80035e-005 6.01368e-014 0)
(0.000293093 3.52602e-012 0)
(0.00156641 -1.08249e-011 0)
(0.00796584 1.13886e-013 0)
(0.0357464 -1.03841e-012 0)
(0.14833 2.27369e-012 0)
(0.531714 -3.23013e-012 0)
(1.66372 -1.4857e-012 0)
(4.46237 2.69475e-012 0)
(10.4238 9.92712e-012 0)
(21.1474 1.2764e-011 0)
(37.2937 1.15215e-011 0)
(58.0825 1.29863e-012 0)
(81.111 2.09322e-012 0)
(105.014 -2.82819e-012 0)
(128.311 5.66162e-012 0)
(150.939 -2.2645e-012 0)
(172.37 4.3939e-013 0)
(192.395 -4.9432e-012 0)
(211.187 -2.05949e-012 0)
(228.1 -4.99146e-012 0)
(243.377 -1.96143e-013 0)
(256.933 3.38989e-013 0)
(267.79 -1.06942e-012 0)
(276.318 -4.67059e-013 0)
(283.244 3.75717e-012 0)
(288.471 -4.55832e-013 0)
(291.323 5.65057e-014 0)
(292.318 5.67211e-012 0)
(293.391 9.94658e-012 0)
(294.708 1.12776e-011 0)
(295.349 1.06684e-011 0)
(294.93 9.16196e-012 0)
(293.93 6.61738e-012 0)
(292.754 1.68941e-011 0)
(291.286 1.71449e-011 0)
(289.944 1.52964e-011 0)
(289.331 1.41233e-011 0)
(289.561 2.15043e-011 0)
(290.072 4.25881e-011 0)
(290.23 8.91023e-012 0)
(289.848 -3.885e-011 0)
(288.818 -6.46688e-011 0)
(287.475 -6.94551e-011 0)
(286.052 -3.11378e-010 0)
(283.51 -8.0564e-010 0)
(277.634 -2.43002e-009 0)
(263.847 -9.43867e-009 0)
(226.471 4.08857e-010 0)
(134.241 -5.32468e-007 0)
(34.5471 5.26166e-007 0)
(6.56511 -8.3589e-006 0)
(1.28295 -1.52888e-006 0)
(0.22618 -5.95296e-005 0)
(1.93457e-010 -1.11414e-011 0)
(2.10488e-009 -2.92153e-012 0)
(1.74045e-008 5.34526e-012 0)
(1.4735e-007 -4.94739e-013 0)
(1.06273e-006 1.15491e-011 0)
(7.68294e-006 -7.36146e-012 0)
(4.80035e-005 1.0814e-012 0)
(0.000293093 1.94286e-012 0)
(0.00156641 -1.08887e-011 0)
(0.00796584 1.09412e-012 0)
(0.0357464 -1.38868e-012 0)
(0.14833 3.83142e-013 0)
(0.531714 -1.09754e-012 0)
(1.66372 -1.30337e-012 0)
(4.46237 3.33893e-012 0)
(10.4238 7.53736e-012 0)
(21.1474 1.26577e-011 0)
(37.2937 1.16314e-011 0)
(58.0825 -5.35145e-013 0)
(81.111 2.50226e-012 0)
(105.014 -1.95521e-012 0)
(128.311 4.64766e-012 0)
(150.939 -8.41918e-013 0)
(172.37 2.14606e-012 0)
(192.395 -5.89442e-013 0)
(211.187 -2.54264e-012 0)
(228.1 -3.53346e-012 0)
(243.377 7.63188e-013 0)
(256.933 -1.89761e-012 0)
(267.79 -2.60937e-012 0)
(276.318 3.52384e-014 0)
(283.244 7.78817e-013 0)
(288.471 -2.49112e-012 0)
(291.323 -5.15363e-013 0)
(292.318 5.54933e-012 0)
(293.391 8.90884e-012 0)
(294.708 1.11166e-011 0)
(295.349 1.21328e-011 0)
(294.93 1.18696e-011 0)
(293.93 9.15427e-012 0)
(292.754 2.41687e-011 0)
(291.286 2.41878e-011 0)
(289.944 2.21787e-011 0)
(289.331 2.03916e-011 0)
(289.561 2.3956e-011 0)
(290.072 4.19206e-011 0)
(290.23 -2.84219e-013 0)
(289.848 -5.18455e-011 0)
(288.818 -5.95864e-011 0)
(287.475 -8.61981e-011 0)
(286.052 -3.54553e-010 0)
(283.51 -8.89631e-010 0)
(277.634 -2.69651e-009 0)
(263.847 -1.07934e-008 0)
(226.471 2.81851e-009 0)
(134.241 -6.51438e-007 0)
(34.5471 7.25374e-007 0)
(6.56511 -1.05418e-005 0)
(1.28294 -1.32178e-006 0)
(0.226176 -7.77233e-005 0)
(1.93645e-010 -6.1368e-012 0)
(2.10565e-009 -6.93925e-012 0)
(1.74046e-008 6.37564e-012 0)
(1.47351e-007 -1.24419e-012 0)
(1.06273e-006 1.31264e-011 0)
(7.68294e-006 -5.84216e-012 0)
(4.80035e-005 2.14734e-012 0)
(0.000293093 3.22581e-012 0)
(0.00156641 -6.33211e-012 0)
(0.00796584 2.71136e-012 0)
(0.0357464 -3.88785e-013 0)
(0.14833 3.23703e-012 0)
(0.531714 -1.27294e-013 0)
(1.66372 -2.07594e-012 0)
(4.46237 5.90001e-012 0)
(10.4238 7.23912e-012 0)
(21.1474 1.22676e-011 0)
(37.2937 8.32172e-012 0)
(58.0825 1.50104e-012 0)
(81.111 1.75303e-012 0)
(105.014 -3.92199e-013 0)
(128.311 4.06001e-012 0)
(150.939 -2.35377e-012 0)
(172.37 2.19953e-012 0)
(192.395 -1.7924e-012 0)
(211.187 -9.28856e-013 0)
(228.1 -1.31369e-012 0)
(243.377 8.23354e-013 0)
(256.933 -9.02621e-013 0)
(267.79 -1.85653e-012 0)
(276.318 3.07899e-012 0)
(283.244 -1.17683e-012 0)
(288.471 -4.99358e-013 0)
(291.323 -1.55914e-012 0)
(292.318 5.3233e-012 0)
(293.391 8.94766e-012 0)
(294.708 1.19357e-011 0)
(295.349 1.44064e-011 0)
(294.93 1.44408e-011 0)
(293.93 8.55056e-012 0)
(292.754 2.70274e-011 0)
(291.286 2.86493e-011 0)
(289.944 2.68694e-011 0)
(289.331 2.12202e-011 0)
(289.561 2.13684e-011 0)
(290.072 2.38504e-011 0)
(290.23 -2.60112e-011 0)
(289.848 -4.56912e-011 0)
(288.818 -3.1607e-011 0)
(287.475 -9.15824e-011 0)
(286.052 -3.90232e-010 0)
(283.51 -9.48215e-010 0)
(277.634 -2.94028e-009 0)
(263.847 -1.22189e-008 0)
(226.471 6.15548e-009 0)
(134.241 -7.9026e-007 0)
(34.5471 9.82219e-007 0)
(6.56511 -1.31826e-005 0)
(1.28294 -8.5575e-007 0)
(0.22617 -0.000100669 0)
(1.93462e-010 -9.52351e-012 0)
(2.10524e-009 -4.43352e-012 0)
(1.74046e-008 3.72271e-012 0)
(1.47351e-007 -7.32334e-014 0)
(1.06273e-006 1.20675e-011 0)
(7.68294e-006 -7.91826e-012 0)
(4.80035e-005 5.21661e-012 0)
(0.000293093 1.1537e-012 0)
(0.00156641 -6.38696e-012 0)
(0.00796584 4.28509e-012 0)
(0.0357464 -3.72797e-013 0)
(0.14833 -1.00237e-012 0)
(0.531714 -2.46436e-013 0)
(1.66372 -3.84215e-013 0)
(4.46237 6.13145e-012 0)
(10.4238 6.09821e-012 0)
(21.1474 9.82265e-012 0)
(37.2937 1.08059e-011 0)
(58.0825 -7.79545e-013 0)
(81.111 2.17798e-012 0)
(105.014 -2.11264e-012 0)
(128.311 3.62866e-012 0)
(150.939 -6.60786e-013 0)
(172.37 1.68552e-012 0)
(192.395 -1.35544e-012 0)
(211.187 7.95138e-015 0)
(228.1 -7.44958e-013 0)
(243.377 2.75148e-012 0)
(256.933 -2.46615e-012 0)
(267.79 -1.11302e-012 0)
(276.318 7.88934e-013 0)
(283.244 1.74807e-012 0)
(288.471 -3.41694e-013 0)
(291.323 1.89388e-013 0)
(292.318 3.45439e-012 0)
(293.391 6.52558e-012 0)
(294.708 1.03306e-011 0)
(295.349 1.33121e-011 0)
(294.93 1.47169e-011 0)
(293.93 1.0644e-011 0)
(292.754 2.77636e-011 0)
(291.286 3.08562e-011 0)
(289.944 2.80396e-011 0)
(289.331 2.04743e-011 0)
(289.561 1.90313e-011 0)
(290.072 1.9983e-012 0)
(290.23 -5.42507e-011 0)
(289.848 -1.38453e-011 0)
(288.818 -3.17615e-012 0)
(287.475 -8.97399e-011 0)
(286.052 -4.19006e-010 0)
(283.51 -9.98574e-010 0)
(277.634 -3.16666e-009 0)
(263.847 -1.3715e-008 0)
(226.471 1.05687e-008 0)
(134.241 -9.50876e-007 0)
(34.5471 1.30867e-006 0)
(6.5651 -1.63498e-005 0)
(1.28293 -3.0699e-008 0)
(0.226163 -0.00012938 0)
(1.93753e-010 -6.69579e-012 0)
(2.10596e-009 -1.00278e-011 0)
(1.74047e-008 2.80326e-012 0)
(1.47351e-007 -1.12254e-012 0)
(1.06273e-006 1.11682e-011 0)
(7.68294e-006 -7.40592e-012 0)
(4.80035e-005 4.15872e-012 0)
(0.000293093 2.34681e-012 0)
(0.00156641 -3.34078e-012 0)
(0.00796584 5.80201e-012 0)
(0.0357464 -9.88243e-013 0)
(0.14833 2.22885e-012 0)
(0.531714 -1.09664e-013 0)
(1.66372 -1.79999e-012 0)
(4.46237 5.51733e-012 0)
(10.4238 4.44209e-012 0)
(21.1474 1.12282e-011 0)
(37.2937 7.21145e-012 0)
(58.0825 4.30548e-012 0)
(81.111 -5.15204e-014 0)
(105.014 9.88106e-013 0)
(128.311 4.91282e-012 0)
(150.939 2.18504e-012 0)
(172.37 1.08907e-012 0)
(192.395 9.02337e-013 0)
(211.187 2.17781e-013 0)
(228.1 2.32515e-012 0)
(243.377 2.68796e-012 0)
(256.933 1.24453e-012 0)
(267.79 1.73962e-012 0)
(276.318 4.57947e-012 0)
(283.244 -1.17798e-012 0)
(288.471 2.08097e-013 0)
(291.323 4.05416e-013 0)
(292.318 3.30799e-012 0)
(293.391 7.1415e-012 0)
(294.708 1.16929e-011 0)
(295.349 1.56409e-011 0)
(294.93 1.53225e-011 0)
(293.93 1.35171e-011 0)
(292.754 2.46222e-011 0)
(291.286 2.80446e-011 0)
(289.944 2.61739e-011 0)
(289.331 2.16764e-011 0)
(289.561 2.16922e-011 0)
(290.072 -4.05546e-012 0)
(290.23 -6.75935e-011 0)
(289.848 3.90191e-012 0)
(288.818 8.76387e-012 0)
(287.475 -8.80829e-011 0)
(286.052 -4.49546e-010 0)
(283.51 -1.03827e-009 0)
(277.634 -3.39072e-009 0)
(263.847 -1.52906e-008 0)
(226.471 1.62007e-008 0)
(134.241 -1.13514e-006 0)
(34.5471 1.7182e-006 0)
(6.5651 -2.01164e-005 0)
(1.28292 1.32791e-006 0)
(0.226155 -0.000165036 0)
(1.93376e-010 -8.81516e-012 0)
(2.10551e-009 -5.80557e-012 0)
(1.74049e-008 -1.15869e-012 0)
(1.47351e-007 -7.40519e-013 0)
(1.06273e-006 8.97085e-012 0)
(7.68294e-006 -1.00328e-011 0)
(4.80035e-005 5.11997e-012 0)
(0.000293093 -5.77974e-013 0)
(0.00156641 -2.37275e-012 0)
(0.00796584 7.34875e-012 0)
(0.0357464 -1.6068e-012 0)
(0.14833 -5.59474e-013 0)
(0.531714 -9.56551e-013 0)
(1.66372 -2.94201e-012 0)
(4.46237 3.95072e-012 0)
(10.4238 4.99688e-012 0)
(21.1474 1.01807e-011 0)
(37.2937 9.11288e-012 0)
(58.0825 3.746e-013 0)
(81.111 2.78502e-012 0)
(105.014 -6.71878e-013 0)
(128.311 7.47185e-012 0)
(150.939 4.055e-012 0)
(172.37 8.80098e-013 0)
(192.395 -5.00121e-013 0)
(211.187 -1.09767e-013 0)
(228.1 -1.09622e-012 0)
(243.377 1.45001e-012 0)
(256.933 -2.86471e-013 0)
(267.79 5.51725e-013 0)
(276.318 2.81193e-012 0)
(283.244 -1.09689e-012 0)
(288.471 -1.60592e-013 0)
(291.323 -3.31731e-013 0)
(292.318 2.33472e-012 0)
(293.391 6.00652e-012 0)
(294.708 9.51196e-012 0)
(295.349 1.38008e-011 0)
(294.93 1.66924e-011 0)
(293.93 1.47962e-011 0)
(292.754 2.30565e-011 0)
(291.286 2.65817e-011 0)
(289.944 2.49716e-011 0)
(289.331 2.389e-011 0)
(289.561 2.84182e-011 0)
(290.072 1.07638e-011 0)
(290.23 -4.59367e-011 0)
(289.848 -1.26845e-012 0)
(288.818 -1.28552e-011 0)
(287.475 -9.57136e-011 0)
(286.052 -4.87227e-010 0)
(283.51 -1.07354e-009 0)
(277.634 -3.58741e-009 0)
(263.847 -1.69022e-008 0)
(226.471 2.32764e-008 0)
(134.241 -1.3447e-006 0)
(34.5471 2.22549e-006 0)
(6.5651 -2.45588e-005 0)
(1.28291 3.3888e-006 0)
(0.226144 -0.000208987 0)
(1.93819e-010 -1.06158e-011 0)
(2.10612e-009 -1.03183e-011 0)
(1.74048e-008 6.62865e-013 0)
(1.47351e-007 -2.05545e-012 0)
(1.06273e-006 6.4954e-012 0)
(7.68294e-006 -7.87096e-012 0)
(4.80035e-005 2.92753e-012 0)
(0.000293093 -1.68524e-013 0)
(0.00156641 -2.97239e-012 0)
(0.00796584 6.48212e-012 0)
(0.0357464 -3.92708e-012 0)
(0.14833 1.6995e-012 0)
(0.531714 -6.43583e-013 0)
(1.66372 -3.84121e-012 0)
(4.46237 4.33473e-012 0)
(10.4238 6.04777e-012 0)
(21.1474 1.05335e-011 0)
(37.2937 9.55521e-012 0)
(58.0825 4.83998e-013 0)
(81.111 2.23378e-012 0)
(105.014 -2.97889e-013 0)
(128.311 4.17444e-012 0)
(150.939 3.93633e-012 0)
(172.37 3.49452e-012 0)
(192.395 2.35682e-012 0)
(211.187 1.24142e-012 0)
(228.1 1.3117e-012 0)