/*--------------------------------*- C++ -*----------------------------------*\
| =========                 |                                                 |
| \\      /  F ield         | OpenFOAM: The Open Source CFD Toolbox           |
|  \\    /   O peration     | Version:  5.x                                   |
|   \\  /    A nd           | Web:      www.OpenFOAM.org                      |
|    \\/     M anipulation  |                                                 |
\*---------------------------------------------------------------------------*/
/*   Windows 32 and 64 bit porting by blueCAPE: http://www.bluecape.com.pt   *\
|  Based on Windows porting (2.0.x v4) by Symscape: http://www.symscape.com   |
\*---------------------------------------------------------------------------*/
FoamFile
{
    version     2.0;
    format      ascii;
    class       volVectorField;
    location    "0.004";
    object      U_0;
}
// * * * * * * * * * * * * * * * * * * * * * * * * * * * * * * * * * * * * * //

dimensions      [0 1 -1 0 0 0 0];

internalField   nonuniform List<vector> 
10000
(
(1.92151e-010 3.91822e-013 0)
(2.08915e-009 1.17811e-012 0)
(1.72953e-008 -2.34798e-012 0)
(1.46481e-007 -2.10021e-012 0)
(1.05673e-006 1.29085e-012 0)
(7.64206e-006 -2.51421e-014 0)
(4.77608e-005 3.43211e-012 0)
(0.000291706 9.98602e-013 0)
(0.00155944 -5.36e-013 0)
(0.00793303 -2.56634e-012 0)
(0.0356102 -3.27044e-012 0)
(0.147819 2.05371e-013 0)
(0.530104 5.4055e-013 0)
(1.6594 -1.087e-012 0)
(4.45258 -1.42622e-012 0)
(10.4049 6.65949e-013 0)
(21.117 4.50936e-012 0)
(37.2534 6.67967e-012 0)
(58.0371 -7.35639e-012 0)
(81.066 3.09081e-012 0)
(104.973 5.70701e-012 0)
(128.275 1.78316e-012 0)
(150.909 -8.54687e-013 0)
(172.345 -3.0273e-012 0)
(192.375 -5.54806e-013 0)
(211.172 -7.00042e-013 0)
(228.089 1.09909e-012 0)
(243.371 1.88238e-012 0)
(256.929 1.84928e-012 0)
(267.787 -4.17299e-013 0)
(276.318 -9.33752e-013 0)
(283.247 -2.16708e-013 0)
(288.475 -1.85855e-012 0)
(291.324 -1.12758e-012 0)
(292.318 -1.38246e-012 0)
(293.394 -1.40048e-012 0)
(294.713 3.6761e-013 0)
(295.351 8.27456e-013 0)
(294.93 8.72037e-013 0)
(293.928 8.34178e-014 0)
(292.751 -1.40944e-012 0)
(291.281 -7.69033e-013 0)
(289.938 -1.37817e-012 0)
(289.327 -5.2305e-013 0)
(289.56 -1.27872e-012 0)
(290.07 1.20183e-013 0)
(290.226 -1.0852e-011 0)
(289.839 1.54386e-011 0)
(288.803 1.40026e-011 0)
(287.458 4.73957e-012 0)
(286.031 -4.39659e-012 0)
(283.469 -2.08049e-011 0)
(277.548 -5.69286e-011 0)
(263.646 -1.94137e-010 0)
(225.873 -2.33024e-010 0)
(133.088 -6.32691e-009 0)
(33.9864 -2.37134e-010 0)
(6.46238 -7.33359e-008 0)
(1.26343 -4.59656e-008 0)
(0.222824 -3.78544e-007 0)
(1.9246e-010 -1.47235e-012 0)
(2.08903e-009 -8.13564e-012 0)
(1.72952e-008 -1.66311e-012 0)
(1.46481e-007 -1.0819e-012 0)
(1.05673e-006 6.3155e-012 0)
(7.64206e-006 -7.13029e-014 0)
(4.77608e-005 5.97409e-013 0)
(0.000291706 -7.38153e-013 0)
(0.00155944 -6.90332e-012 0)
(0.00793303 -4.76489e-012 0)
(0.0356102 -5.48153e-012 0)
(0.147819 -1.27761e-012 0)
(0.530104 2.82467e-012 0)
(1.6594 -5.16859e-013 0)
(4.45258 -9.95803e-013 0)
(10.4049 1.45126e-012 0)
(21.117 3.6574e-012 0)
(37.2534 3.07132e-012 0)
(58.0371 3.94072e-013 0)
(81.066 -2.07539e-012 0)
(104.973 -3.97905e-013 0)
(128.275 2.971e-012 0)
(150.909 -1.90998e-012 0)
(172.345 -2.55631e-013 0)
(192.375 -1.36843e-012 0)
(211.172 -3.18984e-012 0)
(228.089 -6.04784e-012 0)
(243.371 -4.22365e-012 0)
(256.929 -3.34084e-012 0)
(267.787 -2.12438e-012 0)
(276.318 -1.88917e-012 0)
(283.247 1.32265e-012 0)
(288.475 3.11876e-012 0)
(291.324 4.28612e-012 0)
(292.318 3.92119e-012 0)
(293.394 3.08186e-012 0)
(294.713 2.65016e-012 0)
(295.351 1.30851e-012 0)
(294.93 2.57739e-012 0)
(293.928 1.68326e-012 0)
(292.751 5.2974e-014 0)
(291.281 3.01005e-013 0)
(289.938 -1.94467e-012 0)
(289.327 -1.51371e-012 0)
(289.56 -2.24479e-012 0)
(290.07 -3.59267e-012 0)
(290.226 -1.77712e-011 0)
(289.839 1.89427e-011 0)
(288.803 2.31557e-011 0)
(287.458 2.10554e-012 0)
(286.031 -2.37108e-011 0)
(283.469 -6.64196e-011 0)
(277.548 -1.81912e-010 0)
(263.646 -5.95397e-010 0)
(225.873 -6.92875e-010 0)
(133.088 -1.94008e-008 0)
(33.9864 -3.12111e-010 0)
(6.46238 -2.26777e-007 0)
(1.26343 -1.39994e-007 0)
(0.222824 -1.18036e-006 0)
(1.91906e-010 -7.13795e-013 0)
(2.08916e-009 -1.18749e-012 0)
(1.72955e-008 9.98419e-013 0)
(1.46482e-007 1.99378e-012 0)
(1.05673e-006 3.89302e-012 0)
(7.64206e-006 -7.86231e-013 0)
(4.77608e-005 3.00407e-012 0)
(0.000291706 -1.80922e-013 0)
(0.00155944 -8.02572e-012 0)
(0.00793303 -9.33006e-012 0)
(0.0356102 -7.00257e-012 0)
(0.147819 7.53268e-013 0)
(0.530104 -1.06578e-013 0)
(1.6594 2.75603e-012 0)
(4.45258 -2.33571e-014 0)
(10.4049 4.08596e-013 0)
(21.117 9.42145e-012 0)
(37.2534 1.25233e-011 0)
(58.0371 -5.34199e-012 0)
(81.066 -2.08314e-013 0)
(104.973 -6.63559e-013 0)
(128.275 3.29817e-012 0)
(150.909 2.69801e-013 0)
(172.345 -1.80527e-014 0)
(192.375 -2.15653e-012 0)
(211.172 -2.7199e-012 0)
(228.089 -2.39777e-012 0)
(243.371 -1.09417e-012 0)
(256.929 -4.32123e-013 0)
(267.787 -1.37059e-012 0)
(276.318 1.01265e-012 0)
(283.247 4.82953e-013 0)
(288.475 1.80894e-013 0)
(291.324 1.99421e-012 0)
(292.318 2.41077e-012 0)
(293.394 2.30181e-012 0)
(294.713 9.46695e-013 0)
(295.351 1.80366e-012 0)
(294.93 4.20651e-012 0)
(293.928 4.87011e-012 0)
(292.751 1.99221e-014 0)
(291.281 -8.87974e-013 0)
(289.938 -1.59972e-012 0)
(289.327 -4.36386e-012 0)
(289.56 1.25904e-012 0)
(290.07 -3.73567e-012 0)
(290.226 -1.5184e-011 0)
(289.839 2.60268e-011 0)
(288.803 3.08274e-011 0)
(287.458 5.42674e-012 0)
(286.031 -3.14055e-011 0)
(283.469 -1.0723e-010 0)
(277.548 -3.06609e-010 0)
(263.646 -1.01445e-009 0)
(225.873 -1.16507e-009 0)
(133.088 -3.39159e-008 0)
(33.9864 7.93541e-010 0)
(6.46238 -4.01969e-007 0)
(1.26343 -2.41057e-007 0)
(0.222823 -2.1245e-006 0)
(1.92138e-010 -4.17195e-012 0)
(2.08911e-009 -6.23175e-012 0)
(1.72953e-008 2.559e-012 0)
(1.46482e-007 -2.52085e-012 0)
(1.05673e-006 4.95302e-012 0)
(7.64206e-006 1.59038e-012 0)
(4.77608e-005 4.07065e-013 0)
(0.000291706 1.01776e-012 0)
(0.00155944 -1.25164e-011 0)
(0.00793303 -5.05824e-012 0)
(0.0356102 -9.1754e-012 0)
(0.147819 3.16435e-013 0)
(0.530104 -1.2336e-012 0)
(1.6594 1.46349e-012 0)
(4.45258 -6.7715e-013 0)
(10.4049 4.80979e-012 0)
(21.117 9.91942e-012 0)
(37.2534 9.60965e-012 0)
(58.0371 1.08334e-012 0)
(81.066 -2.49838e-012 0)
(104.973 8.07437e-013 0)
(128.275 7.7485e-013 0)
(150.909 -7.64082e-013 0)
(172.345 -1.06388e-012 0)
(192.375 -3.37011e-012 0)
(211.172 -4.15382e-012 0)
(228.089 -5.11247e-012 0)
(243.371 -1.31688e-012 0)
(256.929 -4.38981e-012 0)
(267.787 -4.51252e-012 0)
(276.318 1.89304e-012 0)
(283.247 -9.87424e-013 0)
(288.475 6.55666e-013 0)
(291.324 3.90376e-012 0)
(292.318 3.03802e-012 0)
(293.394 2.9524e-012 0)
(294.713 3.05445e-012 0)
(295.351 4.23679e-012 0)
(294.93 5.67208e-012 0)
(293.928 6.96388e-012 0)
(292.751 1.85003e-012 0)
(291.281 1.88171e-012 0)
(289.938 1.343e-012 0)
(289.327 -4.38317e-012 0)
(289.56 -3.23769e-012 0)
(290.07 -4.8928e-012 0)
(290.226 -1.7302e-011 0)
(289.839 2.19262e-011 0)
(288.803 2.11484e-011 0)
(287.458 -4.18289e-012 0)
(286.031 -5.03263e-011 0)
(283.469 -1.5483e-010 0)
(277.548 -4.42507e-010 0)
(263.646 -1.46293e-009 0)
(225.873 -1.60618e-009 0)
(133.088 -5.09218e-008 0)
(33.9864 4.14927e-009 0)
(6.46238 -6.15643e-007 0)
(1.26343 -3.54208e-007 0)
(0.222823 -3.32178e-006 0)
(1.91856e-010 -2.68421e-012 0)
(2.08942e-009 -3.99841e-012 0)
(1.72957e-008 5.21608e-012 0)
(1.46482e-007 2.10583e-012 0)
(1.05673e-006 3.7424e-012 0)
(7.64206e-006 -1.74847e-012 0)
(4.77608e-005 -7.49972e-013 0)
(0.000291706 -1.34053e-012 0)
(0.00155944 -1.30064e-011 0)
(0.00793303 -8.38376e-012 0)
(0.0356102 -9.40639e-012 0)
(0.147819 1.39217e-012 0)
(0.530104 -1.59798e-012 0)
(1.6594 7.7275e-012 0)
(4.45258 1.54887e-012 0)
(10.4049 -3.24748e-012 0)
(21.117 1.1916e-011 0)
(37.2534 1.31675e-011 0)
(58.0371 -9.99557e-013 0)
(81.066 -1.00078e-014 0)
(104.973 -1.5483e-012 0)
(128.275 -5.33101e-014 0)
(150.909 -7.69012e-013 0)
(172.345 -4.56216e-013 0)
(192.375 -8.87505e-013 0)
(211.172 -2.23508e-012 0)
(228.089 -1.54603e-012 0)
(243.371 -4.58963e-013 0)
(256.929 -6.17245e-013 0)
(267.787 1.71635e-013 0)
(276.318 1.32614e-012 0)
(283.247 1.9368e-012 0)
(288.475 2.50539e-012 0)
(291.324 1.31027e-012 0)
(292.318 8.92781e-013 0)
(293.394 2.28465e-012 0)
(294.713 4.26414e-012 0)
(295.351 3.94861e-012 0)
(294.93 5.12526e-012 0)
(293.928 4.46622e-012 0)
(292.751 6.74271e-012 0)
(291.281 6.99644e-012 0)
(289.938 4.54067e-012 0)
(289.327 -8.55982e-013 0)
(289.56 -1.4606e-012 0)
(290.07 -9.36432e-013 0)
(290.226 -5.77693e-012 0)
(289.839 8.15162e-012 0)
(288.803 4.88388e-012 0)
(287.458 -4.68731e-012 0)
(286.031 -6.6639e-011 0)
(283.469 -2.06067e-010 0)
(277.548 -5.83263e-010 0)
(263.646 -1.95519e-009 0)
(225.873 -1.99294e-009 0)
(133.088 -7.15594e-008 0)
(33.9864 1.09965e-008 0)
(6.46238 -8.85642e-007 0)
(1.26343 -4.83158e-007 0)
(0.222823 -4.89768e-006 0)
(1.92083e-010 -6.26388e-012 0)
(2.08939e-009 -6.78814e-012 0)
(1.72955e-008 7.67835e-012 0)
(1.46482e-007 -9.36988e-013 0)
(1.05673e-006 5.06329e-012 0)
(7.64206e-006 6.42369e-014 0)
(4.77608e-005 -2.85098e-012 0)
(0.000291706 -5.43641e-013 0)
(0.00155944 -1.51061e-011 0)
(0.00793303 -8.61762e-012 0)
(0.0356102 -7.25216e-012 0)
(0.147819 1.05977e-012 0)
(0.530104 -2.40256e-012 0)
(1.6594 5.86409e-012 0)
(4.45258 -1.01294e-012 0)
(10.4049 2.18993e-012 0)
(21.117 1.37643e-011 0)
(37.2534 1.20798e-011 0)
(58.0371 -2.60696e-012 0)
(81.066 -1.97914e-013 0)
(104.973 -2.40332e-012 0)
(128.275 -1.75712e-012 0)
(150.909 2.05505e-012 0)
(172.345 1.56847e-012 0)
(192.375 8.45276e-013 0)
(211.172 -3.05262e-012 0)
(228.089 -2.68588e-012 0)
(243.371 -7.90024e-013 0)
(256.929 -3.14551e-012 0)
(267.787 -4.01895e-012 0)
(276.318 1.2055e-012 0)
(283.247 1.57324e-012 0)
(288.475 -5.77384e-013 0)
(291.324 3.72863e-012 0)
(292.318 4.04366e-012 0)
(293.394 5.53209e-012 0)
(294.713 6.13283e-012 0)
(295.351 5.86065e-012 0)
(294.93 4.83006e-012 0)
(293.928 3.27885e-012 0)
(292.751 1.0005e-011 0)
(291.281 9.56088e-012 0)
(289.938 6.46888e-012 0)
(289.327 6.29089e-013 0)
(289.56 1.63265e-012 0)
(290.07 9.4439e-014 0)
(290.226 -6.20586e-012 0)
(289.839 -7.46875e-012 0)
(288.803 -3.81203e-012 0)
(287.458 -4.814e-012 0)
(286.031 -8.41983e-011 0)
(283.469 -2.63927e-010 0)
(277.548 -7.461e-010 0)
(263.646 -2.53646e-009 0)
(225.873 -2.34558e-009 0)
(133.088 -9.70229e-008 0)
(33.9864 2.28117e-008 0)
(6.46238 -1.23189e-006 0)
(1.26343 -6.29833e-007 0)
(0.222822 -7.00178e-006 0)
(1.91842e-010 -4.97758e-012 0)
(2.08992e-009 -4.87787e-012 0)
(1.72958e-008 7.31564e-012 0)
(1.46482e-007 2.05016e-012 0)
(1.05673e-006 3.86375e-012 0)
(7.64206e-006 -1.87713e-012 0)
(4.77608e-005 -3.59286e-012 0)
(0.000291706 -6.97066e-013 0)
(0.00155944 -1.6985e-011 0)
(0.00793303 -6.63347e-012 0)
(0.0356102 -5.71729e-012 0)
(0.147819 4.49673e-012 0)
(0.530104 -6.22902e-012 0)
(1.6594 7.3643e-012 0)
(4.45258 -2.77458e-013 0)
(10.4049 1.40276e-012 0)
(21.117 1.10227e-011 0)
(37.2534 1.41771e-011 0)
(58.0371 -1.2367e-012 0)
(81.066 -2.57333e-012 0)
(104.973 -1.64381e-012 0)
(128.275 7.98175e-013 0)
(150.909 -2.78835e-012 0)
(172.345 1.25216e-012 0)
(192.375 2.59385e-013 0)
(211.172 -2.84406e-013 0)
(228.089 7.09749e-014 0)
(243.371 2.92481e-012 0)
(256.929 -2.18765e-012 0)
(267.787 -3.39931e-012 0)
(276.318 1.75404e-012 0)
(283.247 1.5456e-012 0)
(288.475 2.39112e-013 0)
(291.324 -1.09743e-012 0)
(292.318 3.64082e-013 0)
(293.394 1.73631e-012 0)
(294.713 2.15872e-012 0)
(295.351 4.22037e-012 0)
(294.93 4.39495e-012 0)
(293.928 6.7446e-012 0)
(292.751 1.3613e-011 0)
(291.281 1.388e-011 0)
(289.938 9.51661e-012 0)
(289.327 2.47375e-012 0)
(289.56 3.43911e-012 0)
(290.07 4.34151e-012 0)
(290.226 -4.42326e-012 0)
(289.839 -1.37178e-011 0)
(288.803 -7.8707e-013 0)
(287.458 -9.05341e-012 0)
(286.031 -1.09945e-010 0)
(283.469 -3.33116e-010 0)
(277.548 -9.40273e-010 0)
(263.646 -3.21517e-009 0)
(225.873 -2.64577e-009 0)
(133.088 -1.28515e-007 0)
(33.9864 4.17574e-008 0)
(6.46238 -1.67729e-006 0)
(1.26343 -7.93781e-007 0)
(0.222822 -9.81746e-006 0)
(1.92065e-010 -8.34875e-012 0)
(2.08979e-009 -6.87367e-012 0)
(1.72958e-008 8.97963e-012 0)
(1.46481e-007 -5.5497e-013 0)
(1.05673e-006 6.70202e-012 0)
(7.64206e-006 -2.04347e-012 0)
(4.77608e-005 -1.79092e-012 0)
(0.000291706 6.60437e-013 0)
(0.00155944 -1.72919e-011 0)
(0.00793303 -6.73145e-012 0)
(0.0356102 -5.85209e-012 0)
(0.147819 -4.71089e-013 0)
(0.530104 -7.36576e-012 0)
(1.6594 5.68874e-012 0)
(4.45258 -1.83171e-012 0)
(10.4049 2.95053e-012 0)
(21.117 1.32851e-011 0)
(37.2534 1.27168e-011 0)
(58.0371 -2.40441e-012 0)
(81.066 1.04005e-012 0)
(104.973 2.21784e-012 0)
(128.275 -4.40635e-013 0)
(150.909 5.25381e-013 0)
(172.345 9.84585e-013 0)
(192.375 -1.55836e-012 0)
(211.172 -3.17716e-012 0)
(228.089 -2.71573e-012 0)
(243.371 -1.79018e-014 0)
(256.929 -2.66074e-012 0)
(267.787 -3.52961e-012 0)
(276.318 -1.17219e-012 0)
(283.247 1.55214e-012 0)
(288.475 -1.67105e-012 0)
(291.324 -9.89062e-013 0)
(292.318 2.17919e-013 0)
(293.394 1.83137e-012 0)
(294.713 4.6353e-012 0)
(295.351 6.30506e-012 0)
(294.93 8.45197e-012 0)
(293.928 7.50016e-012 0)
(292.751 1.33043e-011 0)
(291.281 1.32389e-011 0)
(289.938 8.56306e-012 0)
(289.327 1.78453e-012 0)
(289.56 4.5953e-012 0)
(290.07 7.57687e-012 0)
(290.226 3.47474e-012 0)
(289.839 -1.50483e-011 0)
(288.803 -4.56191e-012 0)
(287.458 -1.30002e-011 0)
(286.031 -1.32399e-010 0)
(283.469 -3.99808e-010 0)
(277.548 -1.14422e-009 0)
(263.646 -3.97066e-009 0)
(225.873 -2.80068e-009 0)
(133.088 -1.67381e-007 0)
(33.9864 7.06003e-008 0)
(6.46238 -2.24845e-006 0)
(1.26343 -9.71047e-007 0)
(0.222821 -1.35715e-005 0)
(1.91918e-010 -9.19513e-012 0)
(2.09048e-009 -5.69044e-012 0)
(1.7296e-008 7.3029e-012 0)
(1.46482e-007 5.5475e-014 0)
(1.05673e-006 7.17807e-012 0)
(7.64206e-006 -4.09418e-012 0)
(4.77608e-005 -1.39478e-012 0)
(0.000291706 1.51675e-012 0)
(0.00155944 -1.63921e-011 0)
(0.00793303 -2.7772e-012 0)
(0.0356102 -4.55347e-012 0)
(0.147819 1.20775e-012 0)
(0.530104 -5.49824e-012 0)
(1.6594 4.97762e-012 0)
(4.45258 -9.76739e-013 0)
(10.4049 2.76994e-012 0)
(21.117 1.31317e-011 0)
(37.2534 1.28886e-011 0)
(58.0371 -3.80316e-012 0)
(81.066 1.90226e-012 0)
(104.973 -6.54302e-012 0)
(128.275 3.05438e-012 0)
(150.909 -9.86315e-013 0)
(172.345 -4.12748e-013 0)
(192.375 5.80034e-014 0)
(211.172 -1.69299e-012 0)
(228.089 -1.10992e-012 0)
(243.371 9.73548e-013 0)
(256.929 -1.46673e-012 0)
(267.787 -1.69301e-012 0)
(276.318 1.0166e-012 0)
(283.247 2.83776e-012 0)
(288.475 -1.30504e-012 0)
(291.324 9.15482e-013 0)
(292.318 1.05397e-012 0)
(293.394 1.47671e-012 0)
(294.713 2.84872e-012 0)
(295.351 4.78864e-012 0)
(294.93 8.31588e-012 0)
(293.928 1.05004e-011 0)
(292.751 1.18461e-011 0)
(291.281 1.18321e-011 0)
(289.938 8.02102e-012 0)
(289.327 -3.55281e-013 0)
(289.56 -6.08671e-013 0)
(290.07 1.01355e-011 0)
(290.226 9.9824e-012 0)
(289.839 -1.52561e-011 0)
(288.803 -4.00482e-013 0)
(287.458 -1.95113e-011 0)
(286.031 -1.5945e-010 0)
(283.469 -4.7016e-010 0)
(277.548 -1.34707e-009 0)
(263.646 -4.78225e-009 0)
(225.873 -2.69612e-009 0)
(133.088 -2.15089e-007 0)
(33.9864 1.12802e-007 0)
(6.46238 -2.97628e-006 0)
(1.26343 -1.15271e-006 0)
(0.22282 -1.85442e-005 0)
(1.92143e-010 -1.04014e-011 0)
(2.09036e-009 -6.83942e-012 0)
(1.7296e-008 1.00097e-011 0)
(1.46481e-007 3.27502e-013 0)
(1.05673e-006 9.98092e-012 0)
(7.64206e-006 -3.92512e-012 0)
(4.77608e-005 -1.27267e-012 0)
(0.000291706 1.74352e-012 0)
(0.00155944 -1.8459e-011 0)
(0.00793303 -2.29528e-012 0)
(0.0356102 -6.51578e-012 0)
(0.147819 5.75299e-013 0)
(0.530104 -5.07638e-012 0)
(1.6594 1.87684e-012 0)
(4.45258 1.17418e-012 0)
(10.4049 4.46356e-012 0)
(21.117 1.47054e-011 0)
(37.2534 1.52149e-011 0)
(58.0371 -3.74771e-012 0)
(81.066 -5.48241e-014 0)
(104.973 -2.90712e-012 0)
(128.275 2.91116e-012 0)
(150.909 -1.77514e-012 0)
(172.345 -1.43105e-012 0)
(192.375 -3.93941e-012 0)
(211.172 -2.79397e-012 0)
(228.089 -2.76373e-012 0)
(243.371 5.21702e-014 0)
(256.929 -1.32892e-012 0)
(267.787 -2.85679e-012 0)
(276.318 1.11198e-012 0)
(283.247 2.55233e-012 0)
(288.475 -3.95043e-013 0)
(291.324 -2.31008e-012 0)
(292.318 4.88766e-013 0)
(293.394 4.2935e-012 0)
(294.713 3.84839e-012 0)
(295.351 5.68757e-012 0)
(294.93 8.79759e-012 0)
(293.928 1.01575e-011 0)
(292.751 8.73668e-012 0)
(291.281 8.07718e-012 0)
(289.938 3.72008e-012 0)
(289.327 -4.06454e-012 0)
(289.56 -1.2282e-012 0)
(290.07 6.90041e-012 0)
(290.226 -9.40806e-015 0)
(289.839 -2.28812e-012 0)
(288.803 7.93492e-012 0)
(287.458 -1.79653e-011 0)
(286.031 -1.8054e-010 0)
(283.469 -5.34346e-010 0)
(277.548 -1.5686e-009 0)
(263.646 -5.71557e-009 0)
(225.873 -2.33945e-009 0)
(133.088 -2.73232e-007 0)
(33.9864 1.7274e-007 0)
(6.46238 -3.89648e-006 0)
(1.26343 -1.32494e-006 0)
(0.222818 -2.50802e-005 0)
(1.92023e-010 -7.17518e-012 0)
(2.0911e-009 -7.93028e-012 0)
(1.72962e-008 8.73094e-012 0)
(1.46482e-007 1.20772e-012 0)
(1.05673e-006 9.45741e-012 0)
(7.64206e-006 -4.43699e-012 0)
(4.77608e-005 -1.10391e-012 0)
(0.000291706 3.3544e-012 0)
(0.00155944 -1.59363e-011 0)
(0.00793303 5.60973e-013 0)
(0.0356102 -2.02844e-012 0)
(0.147819 3.36662e-012 0)
(0.530104 -4.79591e-012 0)
(1.6594 4.51886e-013 0)
(4.45258 2.63976e-012 0)
(10.4049 4.25971e-012 0)
(21.117 1.45681e-011 0)
(37.2534 1.20347e-011 0)
(58.0371 -1.72537e-012 0)
(81.066 9.89498e-013 0)
(104.973 -3.97751e-012 0)
(128.275 2.55548e-012 0)
(150.909 1.51158e-012 0)
(172.345 -2.06272e-012 0)
(192.375 -3.47648e-012 0)
(211.172 -1.79376e-012 0)
(228.089 -3.037e-012 0)
(243.371 3.9987e-014 0)
(256.929 1.02165e-012 0)
(267.787 -2.0926e-012 0)
(276.318 4.82319e-012 0)
(283.247 -7.58258e-013 0)
(288.475 -3.60735e-012 0)
(291.324 -7.74986e-014 0)
(292.318 2.66944e-012 0)
(293.394 6.29763e-012 0)
(294.713 7.50852e-012 0)
(295.351 8.62828e-012 0)
(294.93 1.07849e-011 0)
(293.928 4.65601e-012 0)
(292.751 7.08187e-012 0)
(291.281 6.47102e-012 0)
(289.938 3.0206e-012 0)
(289.327 -2.3884e-012 0)
(289.56 5.34797e-012 0)
(290.07 8.27079e-012 0)
(290.226 -8.38757e-012 0)
(289.839 6.2484e-012 0)
(288.803 -6.87315e-012 0)
(287.458 -2.99594e-011 0)
(286.031 -2.20822e-010 0)
(283.469 -6.18945e-010 0)
(277.548 -1.81599e-009 0)
(263.646 -6.77967e-009 0)
(225.873 -1.65946e-009 0)
(133.088 -3.4357e-007 0)
(33.9864 2.55783e-007 0)
(6.46238 -5.04994e-006 0)
(1.26343 -1.46616e-006 0)
(0.222816 -3.36001e-005 0)
(1.92129e-010 -8.89317e-012 0)
(2.09084e-009 -6.01738e-012 0)
(1.72962e-008 8.66636e-012 0)
(1.46482e-007 7.15993e-013 0)
(1.05673e-006 1.11016e-011 0)
(7.64206e-006 -6.59631e-012 0)
(4.77608e-005 2.15977e-012 0)
(0.000291706 1.91501e-012 0)
(0.00155944 -1.42573e-011 0)
(0.00793303 -1.71794e-012 0)
(0.0356102 -4.12986e-012 0)
(0.147819 -6.60659e-013 0)
(0.530104 -2.6535e-012 0)
(1.6594 3.04377e-013 0)
(4.45258 1.41161e-012 0)
(10.4049 7.75261e-012 0)
(21.117 1.53849e-011 0)
(37.2534 1.28824e-011 0)
(58.0371 -4.951e-012 0)
(81.066 2.94631e-012 0)
(104.973 -4.11734e-012 0)
(128.275 5.04307e-012 0)
(150.909 3.06976e-013 0)
(172.345 -7.51397e-013 0)
(192.375 -3.00959e-012 0)
(211.172 -3.19249e-012 0)
(228.089 -3.26319e-012 0)
(243.371 -3.394e-012 0)
(256.929 -1.52665e-012 0)
(267.787 -3.91635e-012 0)
(276.318 2.88777e-012 0)
(283.247 -3.26355e-012 0)
(288.475 -2.39326e-012 0)
(291.324 -1.49256e-012 0)
(292.318 3.46019e-012 0)
(293.394 7.21268e-012 0)
(294.713 9.8863e-012 0)
(295.351 1.02201e-011 0)
(294.93 8.94179e-012 0)
(293.928 5.6913e-012 0)
(292.751 1.05429e-011 0)
(291.281 1.08466e-011 0)
(289.938 8.43178e-012 0)
(289.327 4.17973e-012 0)
(289.56 1.38622e-011 0)
(290.07 2.80542e-011 0)
(290.226 4.6965e-013 0)
(289.839 -1.34758e-011 0)
(288.803 -3.14741e-011 0)
(287.458 -4.29618e-011 0)
(286.031 -2.60611e-010 0)
(283.469 -7.16081e-010 0)
(277.548 -2.0991e-009 0)
(263.646 -7.97891e-009 0)
(225.873 -5.33512e-010 0)
(133.088 -4.27927e-007 0)
(33.9864 3.68432e-007 0)
(6.46238 -6.48299e-006 0)
(1.26342 -1.5437e-006 0)
(0.222814 -4.46131e-005 0)
(1.92118e-010 -6.11265e-012 0)
(2.09158e-009 -5.84291e-012 0)
(1.72964e-008 8.14919e-012 0)
(1.46482e-007 -4.55267e-013 0)
(1.05673e-006 1.18038e-011 0)
(7.64205e-006 -5.59755e-012 0)
(4.77608e-005 6.36652e-014 0)
(0.000291706 3.57266e-012 0)
(0.00155944 -1.08237e-011 0)
(0.00793303 1.82025e-013 0)
(0.0356102 -1.02136e-012 0)
(0.147819 2.28437e-012 0)
(0.530104 -3.13113e-012 0)
(1.6594 -1.5207e-012 0)
(4.45258 2.63861e-012 0)
(10.4049 9.92549e-012 0)
(21.117 1.27994e-011 0)
(37.2534 1.15293e-011 0)
(58.0371 1.29426e-012 0)
(81.066 2.07503e-012 0)
(104.973 -2.82299e-012 0)
(128.275 5.6262e-012 0)
(150.909 -2.28881e-012 0)
(172.345 4.35657e-013 0)
(192.375 -4.98245e-012 0)
(211.172 -2.01491e-012 0)
(228.089 -4.99447e-012 0)
(243.371 -1.68769e-013 0)
(256.929 3.67163e-013 0)
(267.787 -1.10721e-012 0)
(276.318 -4.59963e-013 0)
(283.247 3.68044e-012 0)
(288.475 -4.8955e-013 0)
(291.324 5.94407e-014 0)
(292.318 5.70513e-012 0)
(293.394 9.9733e-012 0)
(294.713 1.12878e-011 0)
(295.351 1.06473e-011 0)
(294.93 9.17079e-012 0)
(293.928 6.75788e-012 0)
(292.751 1.64585e-011 0)
(291.281 1.66687e-011 0)
(289.938 1.48456e-011 0)
(289.327 1.363e-011 0)
(289.56 2.0878e-011 0)
(290.07 4.20267e-011 0)
(290.226 8.91048e-012 0)
(289.839 -3.93394e-011 0)
(288.803 -6.27576e-011 0)
(287.458 -6.80948e-011 0)
(286.031 -3.08697e-010 0)
(283.469 -8.01963e-010 0)
(277.548 -2.37166e-009 0)
(263.646 -9.25934e-009 0)
(225.873 1.21441e-009 0)
(133.088 -5.28152e-007 0)
(33.9864 5.18424e-007 0)
(6.46238 -8.24753e-006 0)
(1.26342 -1.51041e-006 0)
(0.22281 -5.87299e-005 0)
(1.92141e-010 -1.12062e-011 0)
(2.09124e-009 -2.96608e-012 0)
(1.72964e-008 5.3879e-012 0)
(1.46482e-007 -4.25749e-013 0)
(1.05673e-006 1.15166e-011 0)
(7.64206e-006 -7.38938e-012 0)
(4.77608e-005 1.1146e-012 0)
(0.000291706 1.93671e-012 0)
(0.00155944 -1.08461e-011 0)
(0.00793303 1.1363e-012 0)
(0.0356102 -1.40583e-012 0)
(0.147819 4.10342e-013 0)
(0.530104 -9.99757e-013 0)
(1.6594 -1.3149e-012 0)
(4.45258 3.29528e-012 0)
(10.4049 7.5469e-012 0)
(21.117 1.26989e-011 0)
(37.2534 1.16404e-011 0)
(58.0371 -5.58298e-013 0)
(81.066 2.50945e-012 0)
(104.973 -1.95735e-012 0)
(128.275 4.66175e-012 0)
(150.909 -8.08998e-013 0)
(172.345 2.15274e-012 0)
(192.375 -6.26874e-013 0)
(211.172 -2.53163e-012 0)
(228.089 -3.5523e-012 0)
(243.371 7.74678e-013 0)
(256.929 -1.91521e-012 0)
(267.787 -2.62406e-012 0)
(276.318 3.47358e-015 0)
(283.247 7.68023e-013 0)
(288.475 -2.53353e-012 0)
(291.324 -5.35556e-013 0)
(292.318 5.53814e-012 0)
(293.394 8.90711e-012 0)
(294.713 1.11203e-011 0)
(295.351 1.21236e-011 0)
(294.93 1.20158e-011 0)
(293.928 9.09798e-012 0)
(292.751 2.38393e-011 0)
(291.281 2.38329e-011 0)
(289.938 2.18244e-011 0)
(289.327 2.01944e-011 0)
(289.56 2.40636e-011 0)
(290.07 4.21227e-011 0)
(290.226 6.17164e-013 0)
(289.839 -5.20121e-011 0)
(288.803 -6.02532e-011 0)
(287.458 -8.51967e-011 0)
(286.031 -3.52129e-010 0)
(283.469 -8.87089e-010 0)
(277.548 -2.63011e-009 0)
(263.646 -1.0585e-008 0)
(225.873 3.77558e-009 0)
(133.088 -6.46133e-007 0)
(33.9864 7.148e-007 0)
(6.46238 -1.0401e-005 0)
(1.26342 -1.30664e-006 0)
(0.222806 -7.66769e-005 0)
(1.92329e-010 -6.16876e-012 0)
(2.09201e-009 -6.96065e-012 0)
(1.72965e-008 6.44673e-012 0)
(1.46482e-007 -1.16537e-012 0)
(1.05673e-006 1.30639e-011 0)
(7.64205e-006 -5.8748e-012 0)
(4.77608e-005 2.17607e-012 0)
(0.000291706 3.19348e-012 0)
(0.00155944 -6.28804e-012 0)
(0.00793303 2.7337e-012 0)
(0.0356102 -4.29874e-013 0)
(0.147819 3.26359e-012 0)
(0.530104 -5.60739e-014 0)
(1.6594 -2.0817e-012 0)
(4.45258 5.87413e-012 0)
(10.4049 7.28649e-012 0)
(21.117 1.23341e-011 0)
(37.2534 8.28079e-012 0)
(58.0371 1.40443e-012 0)
(81.066 1.75466e-012 0)
(104.973 -4.07654e-013 0)
(128.275 4.07125e-012 0)
(150.909 -2.28697e-012 0)
(172.345 2.20638e-012 0)
(192.375 -1.77258e-012 0)
(211.172 -9.30842e-013 0)
(228.089 -1.28417e-012 0)
(243.371 8.13419e-013 0)
(256.929 -8.98984e-013 0)
(267.787 -1.83661e-012 0)
(276.318 3.02062e-012 0)
(283.247 -1.13744e-012 0)
(288.475 -5.03094e-013 0)
(291.324 -1.56005e-012 0)
(292.318 5.30666e-012 0)
(293.394 8.95949e-012 0)
(294.713 1.19444e-011 0)
(295.351 1.44118e-011 0)
(294.93 1.44761e-011 0)
(293.928 8.50182e-012 0)
(292.751 2.69785e-011 0)
(291.281 2.85535e-011 0)
(289.938 2.67501e-011 0)
(289.327 2.12772e-011 0)
(289.56 2.18837e-011 0)
(290.07 2.46512e-011 0)
(290.226 -2.44198e-011 0)
(289.839 -4.47086e-011 0)
(288.803 -3.52077e-011 0)
(287.458 -9.12043e-011 0)
(286.031 -3.88164e-010 0)
(283.469 -9.46884e-010 0)
(277.548 -2.86441e-009 0)
(263.646 -1.19766e-008 0)
(225.873 7.28605e-009 0)
(133.088 -7.83792e-007 0)
(33.9864 9.6801e-007 0)
(6.46238 -1.3006e-005 0)
(1.26341 -8.47482e-007 0)
(0.222801 -9.93104e-005 0)
(1.92146e-010 -9.59018e-012 0)
(2.0916e-009 -4.43499e-012 0)
(1.72965e-008 3.76001e-012 0)
(1.46482e-007 -7.00211e-014 0)
(1.05673e-006 1.20054e-011 0)
(7.64205e-006 -7.97481e-012 0)
(4.77608e-005 5.21423e-012 0)
(0.000291706 1.12975e-012 0)
(0.00155944 -6.3477e-012 0)
(0.00793303 4.27137e-012 0)
(0.0356102 -3.75889e-013 0)
(0.147819 -1.00332e-012 0)
(0.530104 -1.61741e-013 0)
(1.6594 -4.0148e-013 0)
(4.45258 6.10876e-012 0)
(10.4049 6.17831e-012 0)
(21.117 9.90389e-012 0)
(37.2534 1.07531e-011 0)
(58.0371 -8.50236e-013 0)
(81.066 2.14328e-012 0)
(104.973 -2.14055e-012 0)
(128.275 3.63703e-012 0)
(150.909 -6.48271e-013 0)
(172.345 1.71659e-012 0)
(192.375 -1.33086e-012 0)
(211.172 2.95243e-014 0)
(228.089 -7.26069e-013 0)
(243.371 2.7261e-012 0)
(256.929 -2.40844e-012 0)
(267.787 -1.06729e-012 0)
(276.318 7.91608e-013 0)
(283.247 1.72801e-012 0)
(288.475 -3.40376e-013 0)
(291.324 1.65975e-013 0)
(292.318 3.45665e-012 0)
(293.394 6.55327e-012 0)
(294.713 1.03524e-011 0)
(295.351 1.32784e-011 0)
(294.93 1.46875e-011 0)
(293.928 1.0712e-011 0)
(292.751 2.79499e-011 0)
(291.281 3.09726e-011 0)
(289.938 2.81685e-011 0)
(289.327 2.06946e-011 0)
(289.56 1.95768e-011 0)
(290.07 2.65126e-012 0)
(290.226 -5.27411e-011 0)
(289.839 -1.12946e-011 0)
(288.803 -8.26887e-012 0)
(287.458 -8.97814e-011 0)
(286.031 -4.16895e-010 0)
(283.469 -9.9823e-010 0)
(277.548 -3.07953e-009 0)
(263.646 -1.34338e-008 0)
(225.873 1.18957e-008 0)
(133.088 -9.43051e-007 0)
(33.9864 1.28986e-006 0)
(6.46238 -1.61303e-005 0)
(1.26341 -3.45047e-008 0)
(0.222794 -0.000127631 0)
(1.92438e-010 -6.85238e-012 0)
(2.09232e-009 -1.00532e-011 0)
(1.72966e-008 2.78884e-012 0)
(1.46482e-007 -1.17546e-012 0)
(1.05673e-006 1.11194e-011 0)
(7.64205e-006 -7.44301e-012 0)
(4.77608e-005 4.13488e-012 0)
(0.000291706 2.38265e-012 0)
(0.00155944 -3.28568e-012 0)
(0.00793303 5.80898e-012 0)
(0.0356102 -9.96813e-013 0)
(0.147819 2.20993e-012 0)
(0.530104 -3.23151e-014 0)
(1.6594 -1.79737e-012 0)
(4.45258 5.4938e-012 0)
(10.4049 4.50387e-012 0)
(21.117 1.1279e-011 0)
(37.2534 7.14678e-012 0)
(58.0371 4.2764e-012 0)
(81.066 -2.95432e-014 0)
(104.973 1.00977e-012 0)
(128.275 4.95434e-012 0)
(150.909 2.16927e-012 0)
(172.345 1.14489e-012 0)
(192.375 9.11886e-013 0)
(211.172 2.19694e-013 0)
(228.089 2.32573e-012 0)
(243.371 2.71969e-012 0)
(256.929 1.2799e-012 0)
(267.787 1.75432e-012 0)
(276.318 4.53293e-012 0)
(283.247 -1.19042e-012 0)
(288.475 1.76741e-013 0)
(291.324 3.85855e-013 0)
(292.318 3.31695e-012 0)
(293.394 7.15724e-012 0)
(294.713 1.1736e-011 0)
(295.351 1.56141e-011 0)
(294.93 1.53064e-011 0)
(293.928 1.35027e-011 0)
(292.751 2.49268e-011 0)
(291.281 2.82777e-011 0)
(289.938 2.64211e-011 0)
(289.327 2.18403e-011 0)
(289.56 2.18697e-011 0)
(290.07 -4.00715e-012 0)
(290.226 -6.69074e-011 0)
(289.839 6.86917e-012 0)
(288.803 4.93669e-012 0)
(287.458 -8.78984e-011 0)
(286.031 -4.4691e-010 0)
(283.469 -1.03888e-009 0)
(277.548 -3.29142e-009 0)
(263.646 -1.49667e-008 0)
(225.873 1.77458e-008 0)
(133.088 -1.12575e-006 0)
(33.9864 1.69362e-006 0)
(6.46238 -1.98457e-005 0)
(1.2634 1.30458e-006 0)
(0.222785 -0.0001628 0)
(1.92064e-010 -8.90368e-012 0)
(2.09187e-009 -5.76759e-012 0)
(1.72967e-008 -1.15904e-012 0)
(1.46482e-007 -8.16049e-013 0)
(1.05673e-006 8.97397e-012 0)
(7.64205e-006 -1.00396e-011 0)
(4.77608e-005 5.10705e-012 0)
(0.000291706 -5.29064e-013 0)
(0.00155944 -2.29821e-012 0)
(0.00793303 7.40024e-012 0)
(0.0356102 -1.63913e-012 0)
(0.147819 -5.45883e-013 0)
(0.530104 -9.48007e-013 0)
(1.6594 -2.94735e-012 0)
(4.45258 3.97351e-012 0)
(10.4049 5.03175e-012 0)
(21.117 1.0202e-011 0)
(37.2534 9.05086e-012 0)
(58.0371 3.40352e-013 0)
(81.066 2.86049e-012 0)
(104.973 -6.10283e-013 0)
(128.275 7.52267e-012 0)
(150.909 4.08363e-012 0)
(172.345 9.1993e-013 0)
(192.375 -4.98846e-013 0)
(211.172 -1.52034e-013 0)
(228.089 -1.05837e-012 0)
(243.371 1.4948e-012 0)
(256.929 -3.31979e-013 0)
(267.787 5.23617e-013 0)
(276.318 2.77228e-012 0)
(283.247 -1.12394e-012 0)
(288.475 -1.77695e-013 0)
(291.324 -3.38489e-013 0)
(292.318 2.34134e-012 0)
(293.394 5.99609e-012 0)
(294.713 9.51319e-012 0)
(295.351 1.38488e-011 0)
(294.93 1.67317e-011 0)
(293.928 1.46823e-011 0)
(292.751 2.3339e-011 0)
(291.281 2.68146e-011 0)
(289.938 2.51559e-011 0)
(289.327 2.39503e-011 0)
(289.56 2.83224e-011 0)
(290.07 1.04665e-011 0)
(290.226 -4.56877e-011 0)
(289.839 4.27301e-013 0)
(288.803 -1.43626e-011 0)
(287.458 -9.49227e-011 0)
(286.031 -4.8419e-010 0)
(283.469 -1.07584e-009 0)
(277.548 -3.47631e-009 0)
(263.646 -1.65348e-008 0)
(225.873 2.50561e-008 0)
(133.088 -1.33351e-006 0)
(33.9864 2.19379e-006 0)
(6.46238 -2.42274e-005 0)
(1.26339 3.33632e-006 0)
(0.222775 -0.000206149 0)
(1.92507e-010 -1.06182e-011 0)
(2.09249e-009 -1.02821e-011 0)
(1.72967e-008 6.5838e-013 0)
(1.46482e-007 -2.12231e-012 0)
(1.05673e-006 6.55615e-012 0)
(7.64205e-006 -7.85902e-012 0)
(4.77608e-005 2.89775e-012 0)
(0.000291706 -1.43478e-013 0)
(0.00155944 -2.89168e-012 0)
(0.00793303 6.50505e-012 0)
(0.0356102 -3.93656e-012 0)
(0.147819 1.7497e-012 0)
(0.530104 -7.08338e-013 0)
(1.6594 -3.84234e-012 0)
(4.45258 4.41612e-012 0)
(10.4049 6.05856e-012 0)
(21.117 1.05048e-011 0)
(37.2534 9.54408e-012 0)
(58.0371 4.71871e-013 0)
(81.066 2.30456e-012 0)
(104.973 -2.01982e-013 0)
(128.275 4.18871e-012 0)
(150.909 3.93499e-012 0)
(172.345 3.52129e-012 0)
(192.375 2.37574e-012 0)