/*--------------------------------*- C++ -*----------------------------------*\
| =========                 |                                                 |
| \\      /  F ield         | OpenFOAM: The Open Source CFD Toolbox           |
|  \\    /   O peration     | Version:  5.x                                   |
|   \\  /    A nd           | Web:      www.OpenFOAM.org                      |
|    \\/     M anipulation  |                                                 |
\*---------------------------------------------------------------------------*/
/*   Windows 32 and 64 bit porting by blueCAPE: http://www.bluecape.com.pt   *\
|  Based on Windows porting (2.0.x v4) by Symscape: http://www.symscape.com   |
\*---------------------------------------------------------------------------*/
FoamFile
{
    version     2.0;
    format      ascii;
    class       volScalarField;
    location    "0.006";
    object      mag(U);
}
// * * * * * * * * * * * * * * * * * * * * * * * * * * * * * * * * * * * * * //

dimensions      [0 1 -1 0 0 0 0];

internalField   nonuniform List<scalar> 
10000
(
7.88759e-006
5.25218e-005
0.000277191
0.00138524
0.0062845
0.0264825
0.101083
0.347209
1.04433
2.76268
6.43189
13.2046
23.9034
38.2984
55.3955
73.6183
92.1623
110.342
128.177
145.25
161.803
177.652
192.553
206.785
220.009
232.235
243.53
253.575
262.349
269.964
276.254
281.397
285.471
288.37
290.071
290.988
291.736
292.258
292.515
292.737
293.013
293.31
293.576
293.727
293.696
293.517
293.251
292.934
292.624
292.374
292.207
292.115
292.074
292.056
292.025
291.967
291.902
291.83
291.729
291.611
7.88759e-006
5.25218e-005
0.000277191
0.00138524
0.0062845
0.0264825
0.101083
0.347209
1.04433
2.76268
6.43189
13.2046
23.9034
38.2984
55.3955
73.6183
92.1623
110.342
128.177
145.25
161.803
177.652
192.553
206.785
220.009
232.235
243.53
253.575
262.349
269.964
276.254
281.397
285.471
288.37
290.071
290.988
291.736
292.258
292.515
292.737
293.013
293.31
293.576
293.727
293.696
293.517
293.251
292.934
292.625
292.375
292.207
292.114
292.073
292.055
292.027
291.969
291.903
291.832
291.726
291.605
7.88759e-006
5.25218e-005
0.000277191
0.00138524
0.0062845
0.0264825
0.101083
0.347209
1.04433
2.76268
6.43189
13.2046
23.9034
38.2984
55.3955
73.6183
92.1623
110.342
128.177
145.25
161.803
177.652
192.553
206.785
220.009
232.235
243.53
253.575
262.349
269.964
276.254
281.397
285.471
288.37
290.071
290.988
291.736
292.258
292.515
292.737
293.013
293.31
293.576
293.727
293.696
293.518
293.252
292.935
292.625
292.375
292.207
292.115
292.072
292.051
292.027
291.974
291.904
291.833
291.727
291.602
7.88759e-006
5.25218e-005
0.000277191
0.00138524
0.0062845
0.0264825
0.101083
0.347209
1.04433
2.76268
6.43189
13.2046
23.9034
38.2984
55.3955
73.6183
92.1623
110.342
128.177
145.25
161.803
177.652
192.553
206.785
220.009
232.235
243.53
253.575
262.349
269.964
276.254
281.397
285.471
288.37
290.071
290.988
291.736
292.259
292.516
292.737
293.013
293.311
293.576
293.727
293.696
293.517
293.252
292.935
292.626
292.376
292.207
292.116
292.074
292.05
292.026
291.977
291.905
291.831
291.729
291.603
7.88759e-006
5.25218e-005
0.000277191
0.00138524
0.0062845
0.0264825
0.101083
0.347209
1.04433
2.76268
6.43189
13.2046
23.9034
38.2984
55.3955
73.6183
92.1623
110.342
128.177
145.25
161.803
177.652
192.553
206.785
220.009
232.235
243.53
253.575
262.349
269.964
276.254
281.397
285.471
288.37
290.071
290.988
291.737
292.259
292.516
292.737
293.013
293.311
293.576
293.727
293.696
293.517
293.253
292.936
292.627
292.377
292.207
292.116
292.074
292.051
292.027
291.978
291.908
291.831
291.73
291.606
7.88759e-006
5.25218e-005
0.000277191
0.00138524
0.0062845
0.0264825
0.101083
0.347209
1.04433
2.76268
6.43189
13.2046
23.9034
38.2984
55.3955
73.6183
92.1623
110.342
128.177
145.25
161.803
177.652
192.553
206.785
220.009
232.235
243.53
253.575
262.349
269.964
276.254
281.397
285.471
288.37
290.071
290.989
291.737
292.26
292.516
292.737
293.013
293.311
293.576
293.727
293.696
293.517
293.252
292.937
292.629
292.378
292.208
292.116
292.076
292.054
292.028
291.979
291.909
291.832
291.732
291.605
7.88759e-006
5.25218e-005
0.000277191
0.00138524
0.0062845
0.0264825
0.101083
0.347209
1.04433
2.76268
6.43189
13.2046
23.9034
38.2984
55.3955
73.6183
92.1623
110.342
128.177
145.25
161.803
177.652
192.553
206.785
220.009
232.235
243.53
253.575
262.349
269.964
276.254
281.397
285.471
288.37
290.071
290.989
291.737
292.26
292.517
292.737
293.014
293.311
293.576
293.727
293.696
293.516
293.252
292.937
292.63
292.38
292.209
292.118
292.076
292.054
292.031
291.982
291.909
291.832
291.737
291.607
7.88759e-006
5.25218e-005
0.000277191
0.00138524
0.0062845
0.0264825
0.101083
0.347209
1.04433
2.76268
6.43189
13.2046
23.9034
38.2984
55.3955
73.6183
92.1623
110.342
128.177
145.25
161.803
177.652
192.553
206.785
220.009
232.235
243.53
253.575
262.349
269.964
276.254
281.397
285.471
288.37
290.071
290.989
291.737
292.261
292.517
292.737
293.014
293.311
293.576
293.727
293.696
293.516
293.251
292.938
292.631
292.383
292.213
292.12
292.076
292.055
292.034
291.986
291.913
291.832
291.735
291.603
7.88759e-006
5.25218e-005
0.000277191
0.00138524
0.0062845
0.0264825
0.101083
0.347209
1.04433
2.76268
6.43189
13.2046
23.9034
38.2984
55.3955
73.6183
92.1623
110.342
128.177
145.25
161.803
177.652
192.553
206.785
220.009
232.235
243.53
253.575
262.349
269.964
276.254
281.397
285.471
288.37
290.071
290.989
291.738
292.261
292.518
292.738
293.014
293.311
293.576
293.727
293.696
293.515
293.251
292.939
292.633
292.385
292.216
292.121
292.077
292.056
292.036
291.99
291.916
291.832
291.734
291.601
7.88759e-006
5.25218e-005
0.000277191
0.00138524
0.0062845
0.0264825
0.101083
0.347209
1.04433
2.76268
6.43189
13.2046
23.9034
38.2984
55.3955
73.6183
92.1623
110.342
128.177
145.25
161.803
177.652
192.553
206.785
220.009
232.235
243.53
253.575
262.349
269.964
276.254
281.397
285.471
288.37
290.071
290.989
291.738
292.261
292.518
292.738
293.014
293.311
293.577
293.727
293.696
293.515
293.25
292.939
292.635
292.388
292.219
292.122
292.079
292.059
292.037
291.991
291.918
291.835
291.738
291.601
7.88759e-006
5.25218e-005
0.000277191
0.00138524
0.0062845
0.0264825
0.101083
0.347209
1.04433
2.76268
6.43189
13.2046
23.9034
38.2984
55.3955
73.6183
92.1623
110.342
128.177
145.25
161.803
177.652
192.553
206.785
220.009
232.235
243.53
253.575
262.349
269.964
276.254
281.397
285.471
288.37
290.071
290.99
291.738
292.262
292.519
292.739
293.015
293.312
293.577
293.727
293.696
293.514
293.25
292.94
292.636
292.391
292.222
292.125
292.081
292.062
292.039
291.992
291.92
291.84
291.739
291.597
7.88759e-006
5.25218e-005
0.000277191
0.00138524
0.0062845
0.0264825
0.101083
0.347209
1.04433
2.76268
6.43189
13.2046
23.9034
38.2984
55.3955
73.6183
92.1623
110.342
128.177
145.25
161.803
177.652
192.553
206.785
220.009
232.235
243.53
253.575
262.349
269.964
276.254
281.397
285.471
288.37
290.071
290.99
291.739
292.262
292.519
292.739
293.015
293.312
293.577
293.728
293.696
293.514
293.249
292.941
292.638
292.392
292.224
292.128
292.083
292.064
292.044
291.995
291.92
291.843
291.74
291.592
7.88759e-006
5.25218e-005
0.000277191
0.00138524
0.0062845
0.0264825
0.101083
0.347209
1.04433
2.76268
6.43189
13.2046
23.9034
38.2984
55.3955
73.6183
92.1623
110.342
128.177
145.25
161.803
177.652
192.553
206.785
220.009
232.235
243.53
253.575
262.349
269.964
276.254
281.397
285.471
288.37
290.071
290.99
291.739
292.263
292.52
292.739
293.015
293.312
293.577
293.728
293.696
293.514
293.249
292.941
292.64
292.394
292.226
292.132
292.086
292.066
292.046
291.998
291.921
291.846
291.742
291.59
7.88758e-006
5.25218e-005
0.000277191
0.00138524
0.0062845
0.0264825
0.101083
0.347209
1.04433
2.76268
6.43189
13.2046
23.9034
38.2984
55.3955
73.6183
92.1623
110.342
128.177
145.25
161.803
177.652
192.553
206.785
220.009
232.235
243.53
253.575
262.349
269.964
276.254
281.397
285.471
288.37
290.071
290.99
291.739
292.263
292.52
292.74
293.015
293.312
293.577
293.728
293.697
293.514
293.249
292.942
292.642
292.396
292.229
292.135
292.089
292.068
292.047
292
291.925
291.849
291.743
291.589
7.88759e-006
5.25218e-005
0.000277191
0.00138524
0.0062845
0.0264825
0.101083
0.347209
1.04433
2.76268
6.43189
13.2046
23.9034
38.2984
55.3955
73.6183
92.1623
110.342
128.177
145.25
161.803
177.652
192.553
206.785
220.009
232.235
243.53
253.575
262.349
269.964
276.254
281.397
285.471
288.37
290.071
290.99
291.74
292.264
292.521
292.74
293.016
293.312
293.577
293.729
293.697
293.514
293.25
292.943
292.643
292.398
292.23
292.138
292.094
292.069
292.049
292.003
291.929
291.851
291.744
291.59
7.88758e-006
5.25218e-005
0.000277191
0.00138524
0.0062845
0.0264825
0.101083
0.347209
1.04433
2.76268
6.43189
13.2046
23.9034
38.2984
55.3955
73.6183
92.1623
110.342
128.177
145.25
161.803
177.652
192.553
206.785
220.009
232.235
243.53
253.575
262.349
269.964
276.254
281.397
285.471
288.37
290.072
290.99
291.74
292.264
292.521
292.741
293.016
293.312
293.577
293.729
293.698
293.515
293.251
292.944
292.644
292.4
292.232
292.141
292.098
292.071
292.05
292.007
291.935
291.853
291.743
291.588
7.88758e-006
5.25218e-005
0.000277191
0.00138524
0.0062845
0.0264825
0.101083
0.347209
1.04433
2.76268
6.43189
13.2046
23.9034
38.2984
55.3955
73.6183
92.1623
110.342
128.177
145.25
161.803
177.652
192.553
206.785
220.009
232.235
243.53
253.575
262.349
269.964
276.254
281.397
285.471
288.37
290.072
290.991
291.741
292.265
292.522
292.741
293.017
293.312
293.577
293.729
293.698
293.516
293.252
292.945
292.645
292.402
292.235
292.144
292.102
292.074
292.051
292.013
291.94
291.852
291.745
291.591
7.88758e-006
5.25218e-005
0.000277191
0.00138524
0.0062845
0.0264825
0.101083
0.347209
1.04433
2.76268
6.43189
13.2046
23.9034
38.2984
55.3955
73.6183
92.1623
110.342
128.177
145.25
161.803
177.652
192.553
206.785
220.009
232.235
243.53
253.575
262.349
269.964
276.254
281.397
285.471
288.37
290.072
290.991
291.741
292.265
292.522
292.742
293.017
293.313
293.577
293.729
293.699
293.517
293.253
292.946
292.646
292.404
292.237
292.146
292.106
292.079
292.053
292.016
291.943
291.853
291.748
291.594
7.88758e-006
5.25218e-005
0.000277191
0.00138524
0.0062845
0.0264825
0.101083
0.347209
1.04433
2.76268
6.43189
13.2046
23.9034
38.2984
55.3955
73.6183
92.1623
110.342
128.177
145.25
161.803
177.652
192.553
206.785
220.009
232.235
243.53
253.575
262.349
269.964
276.254
281.397
285.471
288.37
290.072
290.991
291.742
292.266
292.523
292.743
293.018
293.313
293.577
293.73
293.699
293.517
293.254
292.947
292.648
292.405
292.24
292.149
292.109
292.084
292.058
292.019
291.945
291.857
291.75
291.59
7.88758e-006
5.25218e-005
0.000277191
0.00138524
0.0062845
0.0264825
0.101083
0.347209
1.04433
2.76268
6.43189
13.2046
23.9034
38.2984
55.3955
73.6183
92.1623
110.342
128.177
145.25
161.803
177.652
192.553
206.785
220.009
232.235
243.53
253.575
262.349
269.964
276.254
281.397
285.471
288.37
290.072
290.991
291.742
292.266
292.523
292.743
293.018
293.313
293.577
293.73
293.7
293.518
293.255
292.948
292.649
292.407
292.242
292.151
292.112
292.09
292.063
292.02
291.947
291.86
291.753
291.59
7.88758e-006
5.25218e-005
0.000277191
0.00138524
0.0062845
0.0264825
0.101083
0.347209
1.04433
2.76268
6.43189
13.2046
23.9034
38.2984
55.3955
73.6183
92.1623
110.342
128.177
145.25
161.803
177.652
192.553
206.785
220.009
232.235
243.53
253.575
262.349
269.964
276.254
281.397
285.471
288.37
290.072
290.991
291.742
292.267
292.524
292.744
293.018
293.313
293.577
293.73
293.701
293.519
293.255
292.949
292.651
292.409
292.244
292.154
292.115
292.095
292.068
292.022
291.948
291.863
291.757
291.591
7.88758e-006
5.25218e-005
0.000277191
0.00138524
0.0062845
0.0264825
0.101083
0.347209
1.04433
2.76268
6.43189
13.2046
23.9034
38.2984
55.3955
73.6183
92.1623
110.342
128.177
145.25
161.803
177.652
192.553
206.785
220.009
232.235
243.53
253.575
262.349
269.964
276.254
281.397
285.471
288.37
290.072
290.991
291.743
292.267
292.524
292.744
293.019
293.313
293.577
293.73
293.701
293.519
293.256
292.95
292.652
292.411
292.247
292.158
292.118
292.098
292.074
292.026
291.95
291.865
291.76
291.593
7.88758e-006
5.25218e-005
0.000277191
0.00138524
0.0062845
0.0264825
0.101083
0.347209
1.04433
2.76268
6.43189
13.2046
23.9034
38.2984
55.3955
73.6183
92.1623
110.342
128.177
145.25
161.803
177.652
192.553
206.785
220.009
232.235
243.53
253.575
262.349
269.964
276.254
281.397
285.471
288.37
290.072
290.991
291.743
292.268
292.525
292.745
293.019
293.313
293.577
293.731
293.702
293.52
293.257
292.951
292.654
292.413
292.251
292.162
292.12
292.101
292.078
292.029
291.952
291.868
291.763
291.594
7.88758e-006
5.25218e-005
0.000277191
0.00138524
0.0062845
0.0264825
0.101083
0.347209
1.04433
2.76268
6.43189
13.2046
23.9034
38.2984
55.3955
73.6183
92.1623
110.342
128.177
145.25
161.803
177.652
192.553
206.785
220.009
232.235
243.53
253.575
262.349
269.964
276.254
281.397
285.471
288.37
290.072
290.991
291.743
292.268
292.525
292.745
293.02
293.314
293.577
293.731
293.702
293.52
293.258
292.952
292.655
292.415
292.254
292.165
292.124
292.103
292.081
292.033
291.955
291.873
291.766
291.592
7.88758e-006
5.25218e-005
0.000277191
0.00138524
0.0062845
0.0264825
0.101083
0.347209
1.04433
2.76268
6.43189
13.2046
23.9034
38.2984
55.3955
73.6183
92.1623
110.342
128.177
145.25
161.803
177.652
192.553
206.785
220.009
232.235
243.53
253.575
262.349
269.964
276.254
281.397
285.471
288.37
290.072
290.991
291.744
292.269
292.526
292.746
293.02
293.314
293.577
293.731
293.702
293.521
293.259
292.953
292.656
292.417
292.256
292.169
292.128
292.106
292.084
292.036
291.959
291.879
291.769
291.591
7.88758e-006
5.25218e-005
0.000277191
0.00138524
0.0062845
0.0264825
0.101083
0.347209
1.04433
2.76268
6.43189
13.2046
23.9034
38.2984
55.3955
73.6183
92.1623
110.342
128.177
145.25
161.803
177.652
192.553
206.785
220.009
232.235
243.53
253.575
262.349
269.964
276.254
281.397
285.471
288.37
290.072
290.991
291.744
292.269
292.526
292.746
293.02
293.314
293.577
293.732
293.703
293.521
293.259
292.954
292.658
292.42
292.259
292.172
292.132
292.11
292.087
292.039
291.964
291.885
291.771
291.59
7.88758e-006
5.25218e-005
0.000277191
0.00138524
0.0062845
0.0264825
0.101083
0.347209
1.04433
2.76268
6.43189
13.2046
23.9034
38.2984
55.3955
73.6183
92.1623
110.342
128.177
145.25
161.803
177.652
192.553
206.785
220.009
232.235
243.53
253.575
262.349
269.964
276.254
281.397
285.471
288.37
290.072
290.991
291.744
292.27
292.527
292.746
293.021
293.314
293.578
293.732
293.703
293.521
293.259
292.955
292.66
292.422
292.262
292.174
292.137
292.114
292.089
292.042
291.969
291.89
291.773
291.588
7.88758e-006
5.25218e-005
0.000277191
0.00138524
0.0062845
0.0264825
0.101083
0.347209
1.04433
2.76268
6.43189
13.2046
23.9034
38.2984
55.3955
73.6183
92.1623
110.342
128.177
145.25
161.803
177.652
192.553
206.785
220.009
232.235
243.53
253.575
262.349
269.964
276.254
281.397
285.471
288.37
290.072
290.991
291.745
292.271
292.527
292.747
293.021
293.314
293.578
293.732
293.704
293.522
293.26
292.956
292.661
292.424
292.265
292.177
292.141
292.119
292.092
292.046
291.973
291.895
291.775
291.588
7.88758e-006
5.25218e-005
0.000277191
0.00138524
0.0062845
0.0264825
0.101083
0.347209
1.04433
2.76268
6.43189
13.2046
23.9034
38.2984
55.3955
73.6183
92.1623
110.342
128.177
145.25
161.803
177.652
192.553
206.785
220.009
232.235
243.53
253.575
262.349
269.964
276.254
281.397
285.471
288.37
290.072
290.991
291.745
292.271
292.528
292.747
293.021
293.315
293.578
293.733
293.705
293.522
293.26
292.957
292.663
292.427
292.267
292.18
292.144
292.123
292.096
292.05
291.978
291.898
291.779
291.592
7.88758e-006
5.25218e-005
0.000277191
0.00138524
0.0062845
0.0264825
0.101083
0.347209
1.04433
2.76268
6.43189
13.2046
23.9034
38.2984
55.3955
73.6183
92.1623
110.342
128.177
145.25
161.803
177.652
192.553
206.785
220.009
232.235
243.53
253.575
262.349
269.964
276.254
281.397
285.471
288.37
290.072
290.991
291.745
292.272
292.529
292.748
293.021
293.315
293.578
293.733
293.705
293.523
293.26
292.958
292.664
292.429
292.27
292.183
292.147
292.126
292.101
292.056
291.983
291.901
291.784
291.595
7.88758e-006
5.25218e-005
0.000277191
0.00138524
0.0062845
0.0264825
0.101083
0.347209
1.04433
2.76268
6.43189
13.2046
23.9034
38.2984
55.3955
73.6183
92.1623
110.342
128.177
145.25
161.803
177.652
192.553
206.785
220.009
232.235
243.53
253.575
262.349
269.964
276.254
281.397
285.471
288.37
290.072
290.991
291.745
292.272
292.529
292.748
293.022
293.315
293.578
293.734
293.706
293.523
293.26
292.959
292.666
292.431
292.272
292.186
292.149
292.129
292.107
292.063
291.988
291.905
291.788
291.599
7.88758e-006
5.25218e-005
0.000277191
0.00138524
0.0062845
0.0264825
0.101083
0.347209
1.04433
2.76268
6.43189
13.2046
23.9034
38.2984
55.3955
73.6183
92.1623
110.342
128.177
145.25
161.803
177.652
192.553
206.785
220.009
232.235
243.53
253.575
262.349
269.964
276.254
281.397
285.471
288.37
290.072
290.992
291.746
292.273
292.53
292.748
293.022
293.315
293.579
293.734
293.706
293.523
293.26
292.959
292.668
292.433
292.275
292.189
292.151
292.132
292.112
292.069
291.992
291.91
291.793
291.602
7.88758e-006
5.25218e-005
0.000277191
0.00138524
0.0062845
0.0264825
0.101083
0.347209
1.04433
2.76268
6.43189
13.2046
23.9034
38.2984
55.3955
73.6183
92.1623
110.342
128.177
145.25
161.803
177.652
192.553
206.785
220.009
232.235
243.53
253.575
262.349
269.964
276.254
281.397
285.471
288.37
290.072
290.992
291.746
292.274
292.531
292.749
293.022
293.315
293.579
293.734
293.707
293.523
293.26
292.96
292.669
292.435
292.278
292.192
292.154
292.135
292.117
292.075
291.997
291.915
291.798
291.607
7.88758e-006
5.25218e-005
0.000277191
0.00138524
0.0062845
0.0264825
0.101083
0.347209
1.04433
2.76268
6.43189
13.2046
23.9034
38.2984
55.3955
73.6183
92.1623
110.342
128.177
145.25
161.803
177.652
192.553
206.785
220.009
232.235
243.53
253.575
262.349
269.964
276.254
281.397
285.471
288.37
290.072
290.992
291.746
292.274
292.531
292.749
293.022
293.316
293.579
293.735
293.707
293.523
293.26
292.96
292.671
292.437
292.281
292.196
292.158
292.138
292.122
292.079
292.001
291.92
291.804
291.612
7.88758e-006
5.25218e-005
0.000277191
0.00138524
0.0062845
0.0264825
0.101083
0.347209
1.04433
2.76268
6.43189
13.2046
23.9034
38.2984
55.3955
73.6183
92.1623
110.342
128.177
145.25
161.803
177.652
192.553
206.785
220.009
232.235
243.53
253.575
262.349
269.964
276.254
281.397
285.471
288.37
290.072
290.992
291.746
292.275
292.532
292.75
293.023
293.316
293.58
293.735
293.708
293.524
293.26
292.961
292.672
292.439
292.283
292.2
292.162
292.142
292.125
292.083
292.007
291.927
291.81
291.618
7.88758e-006
5.25218e-005
0.000277191
0.00138524
0.0062845
0.0264825
0.101083
0.347209
1.04433
2.76268
6.43189
13.2046
23.9034
38.2984
55.3955
73.6183
92.1623
110.342
128.177
145.25
161.803
177.652
192.553
206.785
220.009
232.235
243.53
253.575
262.349
269.964
276.254
281.397
285.471
288.37
290.072
290.992
291.746
292.275
292.533
292.75
293.023
293.316
293.58
293.735
293.708
293.524
293.26
292.961
292.673
292.441
292.286
292.204
292.166
292.145
292.128
292.086
292.014
291.934
291.816
291.624
7.88758e-006
5.25218e-005
0.000277191
0.00138524
0.0062845
0.0264825
0.101083
0.347209
1.04433
2.76268
6.43189
13.2046
23.9034
38.2984
55.3955
73.6183
92.1623
110.342
128.177
145.25
161.803
177.652
192.553
206.785
220.009
232.235
243.53
253.575
262.349
269.964
276.254
281.397
285.471
288.37
290.072
290.992
291.747
292.276
292.533
292.75
293.023
293.317
293.581
293.736
293.709
293.524
293.26
292.961
292.674
292.443
292.288
292.207
292.17
292.149
292.131
292.09
292.022
291.942
291.822
291.631
7.88758e-006
5.25218e-005
0.000277191
0.00138524
0.0062845
0.0264825
0.101083
0.347209
1.04433
2.76268
6.43189
13.2046
23.9034
38.2984
55.3955
73.6183
92.1623
110.342
128.177
145.25
161.803
177.652
192.553
206.785
220.009
232.235
243.53
253.575
262.349
269.964
276.254
281.397
285.471
288.37
290.072
290.992
291.747
292.277
292.534
292.751
293.023
293.317
293.581
293.736
293.709
293.524
293.259
292.962
292.674
292.444
292.291
292.21
292.174
292.153
292.133
292.094
292.031
291.949
291.829
291.639
7.88758e-006
5.25218e-005
0.000277191
0.00138524
0.0062845
0.0264825
0.101083
0.347209
1.04433
2.76268
6.43189
13.2046
23.9034
38.2984
55.3955
73.6183
92.1623
110.342
128.177
145.25
161.803
177.652
192.553
206.785
220.009
232.235
243.53
253.575
262.349
269.964
276.254
281.397
285.471
288.37
290.072
290.992
291.747
292.277
292.535
292.751
293.023
293.317
293.581
293.736
293.709
293.524
293.259
292.962
292.675
292.446
292.293
292.213
292.178
292.158
292.136
292.097
292.039
291.958
291.836
291.646
7.88758e-006
5.25218e-005
0.000277191
0.00138524
0.0062845
0.0264825
0.101083
0.347209
1.04433
2.76268
6.43189
13.2046
23.9034
38.2984
55.3955
73.6183
92.1623
110.342
128.177
145.25
161.803
177.652
192.553
206.785
220.009
232.235
243.53
253.575
262.349
269.964
276.254
281.397
285.471
288.37
290.072
290.992
291.747
292.278
292.535
292.751
293.024
293.317
293.582
293.736
293.71
293.525
293.259
292.962
292.676
292.447
292.295
292.215
292.182
292.162
292.139
292.101
292.047
291.967
291.843
291.654
7.88758e-006
5.25218e-005
0.000277191
0.00138524
0.0062845
0.0264825
0.101083
0.347209
1.04433
2.76268
6.43189
13.2046
23.9034
38.2984
55.3955
73.6183
92.1623
110.342
128.177
145.25
161.803
177.652
192.553
206.785
220.009
232.235
243.53
253.575
262.349
269.964
276.254
281.397
285.471
288.37
290.072
290.992
291.747
292.278
292.536
292.752
293.024
293.318
293.582
293.737
293.71
293.525
293.259
292.963
292.677
292.449
292.297
292.217
292.185
292.166
292.143
292.105
292.054
291.975
291.849
291.662
7.88758e-006
5.25218e-005
0.000277191
0.00138524
0.0062845
0.0264825
0.101083
0.347209
1.04433
2.76268
6.43189
13.2046
23.9034
38.2984
55.3955
73.6183
92.1623
110.342
128.177
145.25
161.803
177.652
192.553
206.785
220.009
232.235
243.53
253.575
262.349
269.964
276.254
281.397
285.471
288.37
290.072
290.992
291.747
292.279
292.537
292.752
293.024
293.318
293.582
293.737
293.711
293.525
293.259
292.963
292.678
292.45
292.299
292.219
292.188
292.17
292.147
292.11
292.061
291.982
291.856
291.671
7.88758e-006
5.25218e-005
0.000277191
0.00138524
0.0062845
0.0264825
0.101083
0.347209
1.04433
2.76268
6.43189
13.2046
23.9034
38.2984
55.3955
73.6183
92.1623
110.342
128.177
145.25
161.803
177.652
192.553
206.785
220.009
232.235
243.53
253.575
262.349
269.964
276.254
281.397
285.471
288.37
290.072
290.992
291.747
292.279
292.537
292.752
293.024
293.318
293.582
293.737
293.711
293.525
293.259
292.964
292.679
292.451
292.301
292.221
292.191
292.173
292.151
292.116
292.068
291.989
291.864
291.681
7.88758e-006
5.25218e-005
0.000277191
0.00138524
0.0062845
0.0264825
0.101083
0.347209
1.04433
2.76268
6.43189
13.2046
23.9034
38.2984
55.3955
73.6183
92.1623
110.342
128.177
145.25
161.803
177.652
192.553
206.785
220.009
232.235
243.53
253.575
262.349
269.964
276.254
281.397
285.471
288.37
290.072
290.992
291.747
292.28
292.538
292.753
293.024
293.318
293.583
293.737
293.711
293.525
293.259
292.964
292.68
292.453
292.303
292.224
292.194
292.176
292.155
292.121
292.074
291.995
291.872
291.692
7.88758e-006
5.25218e-005
0.000277191
0.00138524
0.0062845
0.0264825
0.101083
0.347209
1.04433
2.76268
6.43189
13.2046
23.9034
38.2984
55.3955
73.6183
92.1623
110.342
128.177
145.25
161.803
177.652
192.553
206.785
220.009
232.235
243.53
253.575
262.349
269.964
276.254
281.397
285.471
288.37
290.072
290.992
291.747
292.28
292.539
292.753
293.025
293.318
293.583
293.738
293.711
293.525
293.259
292.965
292.681
292.454
292.304
292.226
292.196
292.179
292.158
292.125
292.081
292.002
291.882
291.706
7.88758e-006
5.25218e-005
0.000277191
0.00138524
0.0062845
0.0264825
0.101083
0.347209
1.04433
2.76268
6.43189
13.2046
23.9034
38.2984
55.3955
73.6183
92.1623
110.342
128.177
145.25
161.803
177.652
192.553
206.785
220.009
232.235
243.53
253.575
262.349
269.964
276.254
281.397
285.471
288.37
290.072
290.992
291.747
292.281
292.539
292.753
293.025
293.319
293.583
293.738
293.712
293.525
293.26
292.965
292.682
292.455
292.306
292.229
292.199
292.181
292.161
292.129
292.087
292.008
291.893
291.721
7.88758e-006
5.25218e-005
0.000277191
0.00138524
0.0062845
0.0264825
0.101083
0.347209
1.04433
2.76268
6.43189
13.2046
23.9034
38.2984
55.3955
73.6183
92.1623
110.342
128.177
145.25
161.803
177.652
192.553
206.785
220.009
232.235
243.53
253.575
262.349
269.964
276.254
281.397
285.471
288.37
290.072
290.992
291.747
292.281
292.54
292.754
293.025
293.319
293.583
293.738
293.712
293.526
293.26
292.966
292.682
292.456
292.308
292.231
292.201
292.183
292.163
292.133
292.092
292.015
291.907
291.738
7.88758e-006
5.25218e-005
0.000277191
0.00138524
0.0062845
0.0264825
0.101083
0.347209
1.04433
2.76268
6.43189
13.2046
23.9034
38.2984
55.3955
73.6183
92.1623
110.342
128.177
145.25
161.803
177.652
192.553
206.785
220.009
232.235
243.53
253.575
262.349
269.964
276.254
281.397
285.471
288.37
290.072
290.992
291.747
292.282
292.541
292.754
293.025
293.319
293.583
293.738
293.712
293.526
293.26
292.967
292.683
292.458
292.31
292.233
292.203
292.186
292.166
292.137
292.096
292.023
291.922
291.756
7.88758e-006
5.25218e-005
0.000277191
0.00138524
0.0062845
0.0264825
0.101083
0.347209
1.04433
2.76268
6.43189
13.2046
23.9034
38.2984
55.3955
73.6183
92.1623
110.342
128.177
145.25
161.803
177.652
192.553
206.785
220.009
232.235
243.53
253.575
262.349
269.964
276.254
281.397
285.471
288.37
290.072
290.992
291.747
292.282
292.541
292.755
293.025
293.319
293.584
293.738
293.712
293.526
293.26
292.967
292.684
292.459
292.311
292.235
292.204
292.188
292.17
292.14
292.1
292.031
291.938
291.775
7.88758e-006
5.25218e-005
0.000277191
0.00138524
0.0062845
0.0264825
0.101083
0.347209
1.04433
2.76268
6.43189
13.2046
23.9034
38.2984
55.3955
73.6183
92.1623
110.342
128.177
145.25
161.803
177.652
192.553
206.785
220.009
232.235
243.53
253.575
262.349
269.964
276.254
281.397
285.471
288.37
290.072
290.992
291.747
292.283
292.542
292.755
293.025
293.319
293.584
293.738
293.713
293.526
293.261
292.968
292.685
292.46
292.313
292.237
292.206
292.19
292.173
292.143
292.104
292.041
291.953
291.795
7.88758e-006
5.25218e-005
0.000277191
0.00138524
0.0062845
0.0264825
0.101083
0.347209
1.04433
2.76268
6.43189
13.2046
23.9034
38.2984
55.3955
73.6183
92.1623
110.342
128.177
145.25
161.803
177.652
192.553
206.785
220.009
232.235
243.53
253.575
262.349
269.964
276.254
281.397
285.471
288.37
290.072
290.992
291.748
292.284
292.544
292.756
293.026
293.32
293.584
293.739
293.713
293.527
293.262
292.97
292.687
292.463
292.318
292.241
292.21
292.197
292.181
292.151
292.116
292.07
292.004
292.097
7.88759e-006
5.25218e-005
0.000277191
0.00138524
0.0062845
0.0264825
0.101083
0.347209
1.04433
2.76268
6.43189
13.2046
23.9034
38.2984
55.3955
73.6183
92.1623
110.342
128.177
145.25
161.803
177.652
192.553
206.785
220.009
232.235
243.53
253.575
262.349
269.964
276.254
281.397
285.471
288.37
290.072
290.992
291.748
292.285
292.546
292.758
293.027
293.32
293.585
293.739
293.714
293.528
293.264
292.973
292.691
292.468
292.325
292.249
292.217
292.21
292.194
292.162
292.137
292.096
292.045
292.151
7.88758e-006
5.25218e-005
0.000277191
0.00138524
0.0062845
0.0264825
0.101083
0.347209
1.04433
2.76268
6.43189
13.2046
23.9034
38.2984
55.3955
73.6183
92.1623
110.342
128.177
145.25
161.803
177.652
192.553
206.785
220.009
232.235
243.53
253.575
262.349
269.964
276.254
281.397
285.471
288.37
290.072
290.992
291.748
292.287
292.549
292.76
293.027
293.321
293.586
293.74
293.715
293.53
293.266
292.977
292.696
292.474
292.331
292.255
292.224
292.217
292.207
292.182
292.154
292.127
292.093
292.196
7.88759e-006
5.25218e-005
0.000277191
0.00138524
0.0062845
0.0264825
0.101083
0.347209
1.04433
2.76268
6.43189
13.2046
23.9034
38.2984
55.3955
73.6183
92.1623
110.342
128.177
145.25
161.803
177.652
192.553
206.785
220.009
232.235
243.53
253.575
262.349
269.964
276.254
281.397
285.471
288.37
290.072
290.992
291.748
292.288
292.552
292.762
293.028
293.322
293.587
293.741
293.717
293.533
293.27
292.98
292.7
292.48
292.338
292.261
292.232
292.229
292.222
292.199
292.167
292.15
292.131
292.23
7.88758e-006
5.25218e-005
0.000277191
0.00138524
0.0062845
0.0264825
0.101083
0.347209
1.04433
2.76268
6.43189
13.2046
23.9034
38.2984
55.3955
73.6183
92.1623
110.342
128.177
145.25
161.803
177.652
192.553
206.785
220.009
232.235
243.53
253.575
262.349
269.964
276.254
281.397
285.471
288.37
290.072
290.992
291.748
292.289
292.555
292.764
293.029
293.322
293.588
293.743
293.719
293.536
293.274
292.984
292.705
292.486
292.344
292.268
292.24
292.24
292.236
292.215
292.184
292.17
292.16
292.266
7.88759e-006
5.25218e-005
0.000277191
0.00138524
0.0062845
0.0264825
0.101083
0.347209
1.04433
2.76268
6.43189
13.2046
23.9034
38.2984
55.3955
73.6183
92.1623
110.342
128.177
145.25
161.803
177.652
192.553
206.785
220.009
232.235
243.53
253.575
262.349
269.964
276.254
281.397
285.471
288.37
290.072
290.992
291.748
292.29
292.558
292.766
293.03
293.323
293.589
293.744
293.721
293.541
293.28
292.987
292.709
292.491
292.352
292.279
292.249
292.244
292.245
292.23
292.199
292.186
292.18
292.287
7.88758e-006
5.25218e-005
0.000277191
0.00138524
0.0062845
0.0264825
0.101083
0.347209
1.04433
2.76268
6.43189
13.2046
23.9034
38.2984
55.3955
73.6183
92.1623
110.342
128.177
145.25
161.803
177.652
192.553
206.785
220.009
232.235
243.53
253.575
262.349
269.964
276.254
281.397
285.471
288.37
290.072
290.992
291.748
292.291
292.56
292.768
293.03
293.324
293.591
293.746
293.723
293.546
293.286
292.992
292.714
292.498
292.359
292.287
292.258
292.252
292.255
292.245
292.215
292.202
292.191
292.288
7.88759e-006
5.25218e-005
0.000277191
0.00138524
0.0062845
0.0264825
0.101083
0.347209
1.04433
2.76268
6.43189
13.2046
23.9034
38.2984
55.3955
73.6183
92.1623
110.342
128.177
145.25
161.803
177.652
192.553
206.785
220.009
232.235
243.53
253.575
262.349
269.964
276.254
281.397
285.471
288.37
290.072
290.992
291.748
292.292
292.562
292.77
293.031
293.325
293.592
293.748
293.725
293.552
293.294
292.997
292.718
292.503
292.366
292.295
292.267
292.262
292.265
292.254
292.227
292.215
292.194
292.276
7.88758e-006
5.25218e-005
0.000277191