/*--------------------------------*- C++ -*----------------------------------*\
| =========                 |                                                 |
| \\      /  F ield         | OpenFOAM: The Open Source CFD Toolbox           |
|  \\    /   O peration     | Version:  5.x                                   |
|   \\  /    A nd           | Web:      www.OpenFOAM.org                      |
|    \\/     M anipulation  |                                                 |
\*---------------------------------------------------------------------------*/
/*   Windows 32 and 64 bit porting by blueCAPE: http://www.bluecape.com.pt   *\
|  Based on Windows porting (2.0.x v4) by Symscape: http://www.symscape.com   |
\*---------------------------------------------------------------------------*/
FoamFile
{
    version     2.0;
    format      ascii;
    class       surfaceScalarField;
    location    "0.006";
    object      phi;
}
// * * * * * * * * * * * * * * * * * * * * * * * * * * * * * * * * * * * * * //

dimensions      [1 0 -1 0 0 0 0];

internalField   nonuniform List<scalar> 
19740
(
5.89476e-007
3.193e-013
3.21948e-006
-7.54952e-013
1.62585e-005
1.63425e-012
7.51744e-005
-1.39577e-012
0.000321896
-3.94351e-013
0.0012582
-1.28564e-012
0.00447338
2.64233e-013
0.0143063
7.80709e-013
0.0395605
6.02185e-013
0.0956549
-4.71623e-013
0.202357
1.26565e-013
0.376145
5.50227e-013
0.610538
7.99361e-015
0.878499
-1.21192e-012
1.14608
-6.31939e-013
1.3907
-6.09512e-013
1.60472
-3.55271e-013
1.78708
9.66116e-013
1.94177
-1.26121e-013
2.06642
3.91243e-013
2.17399
3.06422e-013
2.26156
2.50799e-013
2.31884
1.96398e-013
2.37287
1.52101e-013
2.42446
-1.94955e-013
2.45206
-2.65898e-013
2.45625
-6.55032e-014
2.45878
-5.32352e-013
2.47845
8.77842e-012
2.49799
-8.2655e-011
2.49907
1.26775e-009
2.48865
-5.16221e-009
2.47033
7.30943e-008
2.45355
-7.98388e-008
2.44183
1.99563e-006
2.44555
1.07399e-005
2.46234
5.60244e-005
2.47644
9.05811e-005
2.48579
0.000275584
2.48907
0.000170858
2.48936
0.000174694
2.48421
0.000208874
2.44285
0.000226109
2.28998
0.000235871
2.06592
0.000251014
1.89736
0.000218155
1.77312
0.000284571
1.6859
0.000332661
1.63001
0.000466318
1.59232
0.000673047
1.56638
0.000499017
1.54854
0.000474961
1.54086
0.000506286
1.53655
5.70149e-005
1.53016
-0.000199254
1.52598
0.000540509
1.53626
0.000690269
1.54041
0.000565385
1.53652
0.00102574
0.0002494
5.70429e-007
1.03606e-012
3.11545e-006
-1.24123e-012
1.57331e-005
3.44702e-012
7.27454e-005
-2.07878e-012
0.000311495
-8.77076e-013
0.00121754
-2.13118e-012
0.00432884
2.92655e-013
0.0138441
5.19584e-013
0.0382822
5.30243e-013
0.0925641
-1.56097e-012
0.195818
3.41505e-013
0.363991
8.80185e-013
0.590811
-9.39693e-013
0.850113
-1.11022e-012
1.10904
-1.12799e-013
1.34576
-5.57776e-013
1.55287
-3.24407e-013
1.72934
1.54299e-012
1.87903
2.52243e-013
1.99965
7.28306e-013
2.10374
-2.46914e-013
2.18848
2.4325e-013
2.24391
3.78586e-014
2.2962
2.22711e-013
2.34612
-3.20521e-013
2.37283
-4.01568e-013
2.37689
-3.00315e-013
2.37933
-1.24478e-012
2.39837
1.66075e-011
2.41728
-1.57479e-010
2.41832
2.42303e-009
2.40823
-9.86001e-009
2.3905
1.40364e-007
2.37427
-1.56678e-007
2.36293
3.86067e-006
2.36653
2.03573e-005
2.38277
0.00011102
2.39642
0.000172553
2.40549
0.000529074
2.40865
0.000365964
2.40897
0.00037091
2.40399
0.00044775
2.36401
0.000463103
2.21591
0.000478331
1.99926
0.000526067
1.83584
0.000460968
1.71572
0.000519263
1.63147
0.000649608
1.57764
0.000702783
1.54096
0.000876947
1.51579
0.000855733
1.49946
0.000933127
1.49067
0.00112229
1.48805
0.000781459
1.48161
7.54138e-005
1.47633
0.000690646
1.48779
0.00135294
1.49235
0.000998491
1.4851
0.00147335
0.00117895
5.51997e-007
1.75104e-012
3.01479e-006
-1.68709e-012
1.52248e-005
4.11493e-012
7.03948e-005
-4.1056e-012
0.00030143
-1.01608e-012
0.0011782
-1.52278e-012
0.00418897
2.80664e-013
0.0133967
3.17524e-013
0.0370453
3.03313e-013
0.0895731
-1.71418e-012
0.189491
-7.02549e-013
0.35223
3.04645e-013
0.57172
-1.57652e-012
0.822644
-9.31255e-013
1.07321
1.31006e-013
1.30228
-4.92051e-013
1.50269
-4.90719e-013
1.67346
2.1303e-012
1.81831
4.16556e-013
1.93504
9.2526e-013
2.03577
-5.79536e-014
2.11777
-3.77476e-014
2.17141
-5.80647e-014
2.222
9.21485e-015
2.27031
-1.31561e-013
2.29616
-4.13003e-013
2.30009
-3.12417e-013
2.30245
-1.60461e-012
2.32087
2.32088e-011
2.33917
-2.21256e-010
2.34018
3.41432e-009
2.33042
-1.39e-008
2.31326
1.9921e-007
2.29756
-2.29551e-007
2.28658
5.54014e-006
2.29006
2.83912e-005
2.30578
0.000164538
2.319
0.000250237
2.32778
0.000734087
2.33086
0.000564246
2.33125
0.000579036
2.32631
0.000667574
2.2877
0.00071262
2.14432
0.000750797
1.93469
0.00074566
1.77649
0.000604292
1.6604
0.000631585
1.57875
0.000842696
1.527
0.000839143
1.49118
0.001139
1.46697
0.00130236
1.45157
0.00107804
1.44126
0.00149847
1.43876
0.00151309
1.437
0.00110151
1.42927
0.0012678
1.43753
0.00197593
1.44539
0.00182329
1.43701
0.00155668
0.00221422
5.34161e-007
2.13474e-012
2.91737e-006
-3.04246e-012
1.47328e-005
4.80549e-012
6.81202e-005
-6.26343e-012
0.00029169
-1.16263e-012
0.00114013
-1.4917e-012
0.00405361
-6.61693e-014
0.0129639
5.78648e-013
0.0358483
-1.72751e-013
0.0866788
-1.99218e-012
0.183368
-9.88098e-013
0.340849
-4.31211e-013
0.553247
-1.3074e-012
0.796063
-4.33875e-013
1.03853
7.33191e-013
1.2602
-8.75078e-013
1.45414
-7.36966e-013
1.61938
1.41376e-012
1.75956
9.3392e-013
1.87251
1.47615e-012
1.96999
2.21823e-013
2.04934
-2.84883e-013
2.10124
-3.79363e-013
2.15021
-1.39333e-013
2.19695
-2.01394e-013
2.22196
-2.53353e-013
2.22576
-4.12337e-013
2.22805
-1.87372e-012
2.24588
2.8594e-011
2.26359
-2.71781e-010
2.26456
4.21104e-009
2.25512
-1.71639e-008
2.23852
2.4788e-007
2.22332
-2.9629e-007
2.21269
6.98945e-006
2.21607
3.46345e-005
2.23127
0.000215542
2.24408
0.000325864
2.25259
0.000873337
2.2556
0.000759708
2.25602
0.000792781
2.25115
0.000884235
2.21382
0.000957324
2.07502
0.000997453
1.87214
0.000943254
1.71909
0.000718775
1.60687
0.000659929
1.52766
0.00086132
1.47785
0.00106883
1.44303
0.00146332
1.41975
0.00160771
1.4055
0.00151006
1.39471
0.00162817
1.39145
0.0019724
1.39136
0.00216605
1.38419
0.00207645
1.38953
0.00235321
1.39819
0.00262178
1.39225
0.00227862
0.0030312
5.16901e-007
2.21911e-012
2.82311e-006
-3.892e-012
1.42568e-005
5.89173e-012
6.59191e-005
-7.38476e-012
0.000282265
-1.51301e-012
0.00110329
-1.77014e-012
0.00392263
4.19664e-013
0.012545
6.95e-013
0.0346899
1.53211e-013
0.0838781
-2.86349e-012
0.177443
-9.70335e-013
0.329835
-8.77076e-013
0.53537
-1.70353e-012
0.77034
-1.75859e-013
1.00497
1.11466e-012
1.21948
-1.6076e-012
1.40715
-5.07372e-013
1.56706
2.15694e-012
1.7027
5.8642e-013
1.81201
1.26033e-012
1.90633
4.24327e-013
1.98312
-6.59695e-013
2.03335
-1.31672e-013
2.08073
-2.46136e-013
2.12596
-2.70228e-013
2.15017
-2.50799e-013
2.15385
-1.48104e-013
2.15606
-2.03426e-012
2.17331
3.26636e-011
2.19044
-3.08643e-010
2.19139
4.80228e-009
2.18225
-1.96096e-008
2.16618
2.85563e-007
2.15148
-3.54444e-007
2.1412
8.18134e-006
2.14447
3.90749e-005
2.15917
0.000262965
2.17158
0.000401156
2.17982
0.000945566
2.18275
0.00097197
2.18318
0.00102998
2.1784
0.00112892
2.14228
0.00116238
2.00792
0.00120822
1.81157
0.00116422
1.66349
0.000944341
1.55489
0.000760127
1.47814
0.00086287
1.43005
0.00117494
1.39633
0.00164755
1.37408
0.00186668
1.36046
0.00192798
1.34965
0.00209189
1.34628
0.00239912
1.34618
0.00273011
1.3394
0.00276492
1.34375
0.00306042
1.35249
0.00304042
1.34955
0.00325617
0.0037427
5.00199e-007
9.64562e-013
2.73189e-006
-5.50182e-012
1.37961e-005
6.17684e-012
6.37891e-005
-7.71783e-012
0.000273145
-2.91811e-012
0.00106764
-1.67821e-012
0.00379588
5.30243e-013
0.0121396
8.90843e-013
0.033569
7.63833e-013
0.0811678
-2.88303e-012
0.171709
-7.01661e-013
0.319177
-5.79536e-013
0.518071
-1.5401e-012
0.745449
6.03961e-014
0.972501
2.3137e-013
1.18007
-7.00551e-013
1.36168
-6.06182e-013
1.51642
1.69598e-012
1.64769
7.79155e-013
1.75346
8.96616e-013
1.84474
2.90878e-013
1.91904
-4.04121e-013
1.96765
-7.30527e-014
2.01349
-3.43059e-013
2.05727
-1.96176e-013
2.08069
-4.02567e-013
2.08425
-2.32037e-014
2.08639
-2.0377e-012
2.10309
3.53249e-011
2.11967
-3.3227e-010
2.12058
5.19264e-009
2.11174
-2.12548e-008
2.09619
3.12236e-007
2.08196
-4.02292e-007
2.07201
9.1079e-006
2.07518
4.18341e-005
2.0894
0.000305587
2.10143
0.000471804
2.10941
0.000983953
2.11225
0.0011806
2.11265
0.00127355
2.10801
0.00137904
2.07305
0.00136412
1.94307
0.00143132
1.753
0.00138873
1.60967
0.00124467
1.50452
0.000840864
1.4301
0.000839897
1.38378
0.00115917
1.35128
0.00161086
1.33
0.00211913
1.31648
0.0025879
1.30655
0.00268713
1.30291
0.00268737
1.30251
0.00294361
1.29616
0.00356502
1.3
0.00407903
1.30895
0.00376617
1.30714
0.00378196
0.00446361
4.84037e-007
8.51763e-013
2.64361e-006
-6.28919e-012
1.33503e-005
6.87095e-012
6.1728e-005
-8.04645e-012
0.000264319
-3.66951e-012
0.00103314
-2.27685e-012
0.00367323
5.50671e-013
0.0117474
1.44196e-012
0.0324843
6.81233e-013
0.0785451
-3.46967e-012
0.166161
-1.33937e-012
0.308864
-5.25802e-013
0.501331
-1.12754e-012
0.721362
4.63185e-013
0.941078
-5.02265e-013
1.14194
-5.10259e-013
1.31769
-4.67848e-013
1.46742
1.81766e-012
1.59445
5.52447e-013
1.6968
9.02167e-013
1.78513
1.2812e-013
1.85703
-1.33893e-013
1.90407
0
1.94843
-2.33591e-013
1.99079
-1.89737e-013
2.01346
-2.31926e-013
2.0169
-2.2371e-013
2.01898
-2.15783e-012
2.03513
3.65025e-011
2.05118
-3.44141e-010
2.05206
5.39878e-009
2.0435
-2.21622e-008
2.02846
3.28512e-007
2.01469
-4.38809e-007
2.00506
9.77397e-006
2.00813
4.31608e-005
2.02189
0.000342094
2.03354
0.000536012
2.04127
0.00101897
2.04401
0.00134506
2.04437
0.0014797
2.0399
0.00159375
2.00604
0.00158309
1.88034
0.00164771
1.6964
0.00159436
1.55766
0.00150963
1.45582
0.000924964
1.38362
0.00084752
1.33874
0.00122774
1.30751
0.0017558
1.28716
0.00245348
1.27281
0.00337127
1.26394
0.00314526
1.26141
0.00300337
1.26118
0.00335286
1.25573
0.00416195
1.25745
0.00478372
1.26539
0.00507158
1.26637
0.00443564
0.00452895
4.68396e-007
4.70735e-013
2.55819e-006
-6.79812e-012
1.29189e-005
7.25109e-012
5.97334e-005
-8.38485e-012
0.000255778
-4.14069e-012
0.000999762
-2.84439e-012
0.00355454
-6.92779e-014
0.0113678
2.02816e-012
0.0314347
6.23057e-013
0.0760071
-4.21529e-012
0.160792
-1.44018e-012
0.298884
-9.07274e-013
0.485132
4.17e-013
0.698053
6.29274e-013
0.91067
-4.8983e-013
1.10504
-5.29798e-013
1.27511
-2.19824e-013
1.42001
1.40332e-012
1.54293
2.78e-013
1.64197
1.19327e-012
1.72745
-1.06581e-013
1.79703
1.75415e-014
1.84254
-9.32587e-015
1.88548
-3.03091e-013
1.92647
-3.11084e-013
1.9484
-3.02647e-013
1.95173
-3.8014e-013
1.95374
-2.1626e-012
1.96937
3.6551e-011
1.9849
-3.45467e-010
1.98575
5.44521e-009
1.97747
-2.24248e-008
1.96291
3.35475e-007
1.94959
-4.63761e-007
1.94027
1.01956e-005
1.94324
4.33377e-005
1.95656
0.000371431
1.96784
0.000596353
1.97533
0.00105684
1.97796
0.00144877
1.97829
0.00162954
1.97395
0.00174768
1.94118
0.00178712
1.81961
0.0018578
1.64158
0.00175368
1.50724
0.00169832
1.40879
0.00104785
1.33888
0.00096743
1.2952
0.00148073
1.26536
0.00195327
1.24597
0.00292424
1.23174
0.00351734
1.22215
0.00365627
1.22053
0.00374208
1.22115
0.00405611
1.21676
0.00457117
1.21619
0.00504921
1.22296
0.00524357
1.22701
0.0050768
0.00518552
4.53262e-007
1.16351e-013
2.47553e-006
-7.15072e-012
1.25015e-005
7.04148e-012
5.78033e-005
-8.45279e-012
0.000247513
-4.49862e-012
0.000967457
-3.1255e-012
0.00343968
-3.15747e-013
0.0110005
2.25819e-012
0.030419
-4.86278e-013
0.0735512
-5.02975e-012
0.155597
-1.8523e-012
0.289226
-4.95159e-013
0.469457
1.47349e-012
0.675498
8.69971e-013
0.881244
-2.12275e-013
1.06934
-3.21965e-013
1.23391
-4.98046e-013
1.37413
1.92601e-012
1.49307
4.10338e-013
1.58892
1.24301e-012
1.67163
-1.4988e-013
1.73896
-2.39808e-014
1.78301
-1.08136e-013
1.82455
-4.69624e-013
1.86422
-3.25295e-013
1.88544
-3.52496e-013
1.88867
-2.96319e-013
1.89061
-2.08289e-012
1.90574
3.57397e-011
1.92076
-3.38339e-010
1.92159
5.35997e-009
1.91358
-2.21511e-008
1.89949
3.34481e-007
1.88659
-4.77247e-007
1.87758
1.0393e-005
1.88046
4.267e-005
1.89334
0.000393024
1.90427
0.000654435
1.91152
0.00110171
1.91404
0.00149883
1.91435
0.00172659
1.91011
0.00185159
1.87839
0.00195566
1.76076
0.00204356
1.58848
0.00193272
1.45846
0.00185867
1.36337
0.00125416
1.29589
0.00120319
1.25369
0.0016238
1.22473
0.00213482
1.20574
0.00328584
1.19178
0.00368858
1.18266
0.00387549
1.18153
0.00463814
1.18207
0.00493869
1.17762
0.00466165
1.17658
0.00511161
1.18388
0.00533406
1.18866
0.00594889
0.00612531
4.38616e-007
-8.88178e-014
2.39554e-006
-7.01839e-012
1.20976e-005
7.8364e-012
5.59355e-005
-7.78133e-012
0.000239516
-4.66827e-012
0.000936197
-3.35509e-012
0.00332854
-2.04281e-014
0.010645
2.8737e-012
0.0294361
-9.33031e-013
0.0711746
-5.61373e-012
0.150569
-2.03171e-012
0.279881
-2.4869e-013
0.454288
1.81322e-012
0.653671
6.44818e-013
0.852769
-2.35367e-014
1.03479
-3.67262e-013
1.19404
1.07914e-013
1.32972
1.76459e-012
1.44483
6.68576e-013
1.53757
1.13087e-012
1.61762
-3.06422e-014
1.68277
-1.02141e-013
1.72539
6.41709e-014
1.7656
-4.80727e-013
1.80398
-4.66849e-013
1.82452
-3.06755e-013
1.82764
-3.39284e-013
1.82952
-1.91269e-012
1.84416
3.42043e-011
1.8587
-3.24698e-010
1.8595
5.17249e-009
1.85174
-2.14536e-008
1.83811
3.27017e-007
1.82563
-4.79794e-007
1.81691
1.03907e-005
1.8197
4.14189e-005
1.83216
0.000406981
1.84274
0.000710153
1.84976
0.00115218
1.85219
0.00152709
1.85247
0.00180021
1.84836
0.00192951
1.81761
0.00209749
1.70377
0.00219558
1.53709
0.0021402
1.41129
0.00201574
1.3194
0.00151314
1.25433
0.00148233
1.2135
0.00185747
1.18548
0.00247697
1.16657
0.00323593
1.15339
0.00398536
1.1458
0.00431192
1.14314
0.0049347
1.14312
0.00552071
1.13903
0.00559488
1.13855
0.0056702
1.14608
0.00624896
1.15112
0.0072054
0.00638978
4.24443e-007
-1.53033e-012
2.31814e-006
-6.54676e-012
1.17067e-005
7.76623e-012
5.41281e-005
-7.36478e-012
0.000231776
-4.83702e-012
0.000905946
-3.28537e-012
0.00322099
-9.37028e-014
0.010301
2.5544e-012
0.0284849
-7.70051e-013
0.0688748
-5.72786e-012
0.145704
-2.33502e-012
0.270837
-7.25198e-013
0.439609
2.98472e-012
0.63255
5.99965e-013
0.825214
-1.02451e-012
1.00135
-5.78648e-013
1.15545
6.63913e-013
1.28676
2.28129e-012
1.39814
2.10276e-013
1.48789
9.30367e-013
1.56535
-5.90639e-013
1.6284
-1.2701e-013
1.66964
-1.79412e-013
1.70855
-4.40536e-013
1.74569
-4.11449e-013
1.76557
-1.70863e-013
1.76859
-1.82743e-013
1.77041
-1.90448e-012
1.78457
3.21022e-011
1.79864
-3.06384e-010
1.79942
4.9104e-009
1.79191
-2.04399e-008
1.77872
3.14581e-007
1.76664
-4.72372e-007
1.7582
1.02171e-005
1.7609
3.97996e-005
1.77296
0.000413655
1.7832
0.000763388
1.78999
0.00120776
1.79235
0.00157002
1.79261
0.00187884
1.78861
0.00198689
1.7588
0.00219384
1.64865
0.00229567
1.48741
0.00231863
1.36569
0.00220685
1.27675
0.00179789
1.21383
0.00178363
1.17429
0.00217779
1.14713
0.00306676
1.12904
0.00326363
1.11629
0.00425512
1.10942
0.00489456
1.10642
0.00514933
1.10569
0.0057607
1.1015
0.00699913
1.10223
0.00682767
1.11026
0.00673105
1.11272
0.00793035
0.00677238
4.10728e-007
-2.25064e-012
2.24323e-006
-6.62581e-012
1.13284e-005
7.51132e-012
5.23791e-005
-6.96154e-012
0.000224287
-5.86642e-012
0.000876673
-3.16192e-012
0.00311691
-6.42153e-013
0.0099682
1.90781e-012
0.0275645
-3.03313e-013
0.0666493
-6.20703e-012
0.140996
-2.52642e-012
0.262086
-1.22613e-012
0.425404
3.66818e-012
0.612111
4.80505e-013
0.79855
-1.30163e-012
0.968994
-2.8999e-013
1.11812
7.03437e-013
1.24518
1.94866e-012
1.35296
2.99316e-013
1.43982
9.59233e-013
1.51477
-5.42455e-013
1.57578
-2.62679e-013
1.61569
-3.22187e-013
1.65334
-2.13829e-013
1.68928
-4.60076e-013
1.70852
-1.43774e-013
1.71144
-1.02696e-013
1.7132
-1.80722e-012
1.72691
2.94887e-011
1.74052
-2.84842e-010
1.74127
4.59883e-009
1.73401
-1.92076e-008
1.72124
2.9858e-007
1.70956
-4.56351e-007
1.70139
9.90289e-006
1.70401
3.79873e-005
1.71567
0.000413548
1.72559
0.000815299
1.73215
0.00126496
1.73444
0.00163537
1.73468
0.00197207
1.73078
0.00207385
1.70191
0.0022692
1.59535
0.00235044
1.43941
0.00247399
1.32159
0.00241
1.23537
0.00212755
1.17429
0.00219699
1.13611
0.0025617
1.11015
0.00333528
1.09304
0.00373175
1.08021
0.00467346
1.07324
0.00560989
1.07078
0.00593642
1.07054
0.00618484
1.06453
0.0070619
1.06633
0.00735516
1.07578
0.00721819
1.07496
0.0080333
0.00762338
3.97457e-007
-2.62901e-012
2.17075e-006
-6.02718e-012
1.09623e-005
6.67288e-012
5.06867e-005
-5.32552e-012
0.00021704
-7.27596e-012
0.000848346
-3.03402e-012
0.0030162
-9.57456e-013
0.00964611
1.54188e-012
0.0266739
-1.84741e-013
0.0644957
-6.33404e-012
0.13644
-2.61791e-012
0.253618
-1.26033e-012
0.411658
3.81961e-012
0.592332
2.24709e-013
0.772747
-1.00187e-012
0.937684
-1.07914e-012
1.08199
6.57252e-013
1.20495
1.82654e-012
1.30925
6.60583e-013
1.39329
1.34448e-012
1.46582
-4.56968e-013
1.52487
-2.7911e-013
1.56349
-3.13305e-013
1.59992
-1.24123e-013
1.6347
-2.50244e-013
1.65331
-1.31561e-013
1.65614
-1.25566e-013
1.65784
-1.63503e-012
1.67111
2.69257e-011
1.68428
-2.61363e-010
1.68501
4.25882e-009
1.67798
-1.78408e-008
1.66563
2.80267e-007
1.65432
-4.33385e-007
1.64641
9.47954e-006
1.64895
3.61075e-005
1.66024
0.000407285
1.66983
0.000867225
1.67617
0.00131691
1.67838
0.00172585
1.67862
0.0020898
1.67482
0.00223236
1.6469
0.00231518
1.54379
0.00236894
1.39297
0.00258008
1.27896
0.00255326
1.19546
0.00245073
1.13624
0.00256816
1.0993
0.00301842
1.07397
0.00371476
1.05757
0.00435695
1.04536
0.00501124
1.03825
0.00600965
1.03593
0.00668902
1.03633
0.00686553
1.02938
0.00676277
1.03111
0.00729249
1.04163
0.00818371
1.04007
0.00803968
0.00846266
3.84614e-007
-2.77289e-012
2.10061e-006
-6.53699e-012
1.06081e-005
6.41354e-012
4.90489e-005
-4.28546e-012
0.000210027
-8.07088e-012
0.000820934
-3.61844e-012
0.00291874
-7.0699e-013
0.00933442
1.17772e-012
0.025812
1.25233e-013
0.0624117
-6.06271e-012
0.132031
-2.39453e-012
0.245423
-1.28475e-012
0.398357
3.67706e-012
0.573192
1.99396e-013
0.747778
-3.54383e-013
0.907385
-1.56186e-012
1.04703
5.62661e-013
1.16601
1.63647e-012
1.26694
9.17932e-013
1.34827
1.59739e-012
1.41846
-3.60822e-013
1.47559
-4.22107e-013
1.51297
-3.63709e-013
1.54822
5.63993e-014
1.58188
-2.45803e-013
1.59989
-2.7689e-013
1.60263
-1.13354e-013
1.60427
-1.50979e-012
1.61711
2.43143e-011
1.62986
-2.37304e-010
1.63056
3.90765e-009
1.62376
-1.6409e-008
1.61181
2.60695e-007
1.60086
-4.05287e-007
1.59322
8.97895e-006
1.59567
3.42204e-005
1.60659
0.000395842
1.61588
0.00091881
1.622
0.00135651
1.62414
0.00183463
1.62438
0.00222087
1.6207
0.00242597
1.5937
0.00235652
1.49391
0.00236591
1.34802
0.00262086
1.23776
0.00270676
1.15681
0.00287254
1.09924
0.00318999
1.0633
0.00361807
1.03875
0.00377805
1.02328
0.00467988
1.01201
0.00481289
1.00515
0.00653201
1.00234
0.00714581
1.00224
0.00711176
0.996479
0.00748116
0.998245
0.00799371
1.00756
0.00903497
1.00721
0.00886423
0.0088535
3.72187e-007
-2.88836e-012
2.03273e-006
-7.10276e-012
1.02654e-005
6.00675e-012
4.7464e-005
-3.24896e-012
0.000203241
-8.0318e-012
0.000794408
-4.12914e-012
0.00282443
-5.87974e-013
0.0090328
6.10179e-013
0.0249779
-2.75335e-014
0.0603951
-5.6275e-012
0.127765
-1.97753e-012
0.237493
-1.4384e-012
0.385485
3.39817e-012
0.554671
6.52367e-013
0.723616
1.46105e-013
0.878066
-1.37002e-012
1.0132
2.7045e-013
1.12834
1.92379e-012
1.226
1.02784e-012
1.30471
1.56097e-012
1.37263
-3.92353e-013
1.42791
-4.66072e-013
1.46408
-5.06262e-013
1.49819
-1.43885e-013
1.53077
-3.69482e-013
1.54819
-2.1716e-013
1.55084
-5.59552e-014
1.55244
-1.34726e-012
1.56486
2.16965e-011
1.57719
-2.13577e-010
1.57788
3.55874e-009
1.57129
-1.49664e-008
1.55973
2.40699e-007
1.54914
-3.73587e-007
1.54174
8.42748e-006
1.54411
3.23794e-005
1.55468
0.000380166
1.56367
0.000967888
1.56958
0.0013869
1.57165
0.00194067
1.57189
0.00234271
1.56836
0.00260218
1.54222
0.00242954
1.44567
0.00238694
1.30452
0.00265146
1.19787
0.0028745
1.11957
0.00325392
1.06392
0.00366178
1.02917
0.00392047
1.00524
0.00408212
0.989624
0.00489014
0.979575
0.00531603
0.972635
0.00658751
0.969778
0.00768358
0.969909
0.00726112
0.965383
0.00786025
0.967017
0.0093998
0.974032
0.0101341
0.974409
0.00950336
0.0094162
3.6016e-007
-3.39639e-012
1.96705e-006
-7.33724e-012
9.93366e-006
4.8308e-012
4.59303e-005
-2.20712e-012
0.000196673
-7.55396e-012
0.000768739
-4.00835e-012
0.00273316
-9.48575e-013
0.00874094
4.36096e-013
0.0241708
-2.78e-013
0.0584436
-5.09992e-012
0.123637
-2.40519e-012
0.229819
-2.0659e-012
0.373029
2.9492e-012
0.536749
8.27338e-013
0.700234
-2.74003e-013
0.849694
-1.00275e-012
0.980459
6.5592e-013
1.09188
1.97575e-012
1.18639
1.05693e-012
1.26255
1.14975e-012
1.32827
-3.67484e-013
1.38178
-4.52527e-013
1.41677
-5.49338e-013
1.44978
-1.26121e-013
1.4813
-2.08944e-013
1.49817
-1.99396e-013
1.50073
1.32783e-013
1.50227
-1.12843e-012
1.5143
1.92909e-011
1.52623
-1.90578e-010
1.52689
3.2219e-009
1.52052
-1.35543e-008
1.50933
2.2091e-007
1.49908
-3.39669e-007
1.49192
7.84859e-006
1.49422
3.06062e-005
1.50445
0.000361316
1.51315
0.00101126
1.51887
0.0014211
1.52087
0.00202314
1.5211
0.00244473
1.51773
0.00275288
1.49243
0.00253094
1.39901
0.00245671
1.26239
0.00273204
1.15919
0.00301059
1.08357
0.00353273
1.02981
0.00386096
0.996399
0.00401147
0.973562
0.00442385
0.957944
0.00508104
0.949021
0.00591589
0.941633
0.00686795
0.937161
0.00792534
0.939129
0.00822366
0.935359
0.00819036
0.936174
0.0104431
0.941808
0.0104824
0.942482
0.00974358
0.0104961
3.48523e-007
-3.89377e-012
1.90349e-006
-7.18892e-012
9.61269e-006
4.30234e-012
4.44462e-005
-1.96554e-012
0.000190319
-7.26441e-012
0.0007439
-3.9968e-012
0.00264485
-1.49392e-012
0.0084585
1.00364e-013
0.0233898
-1.20792e-013
0.0565551
-4.7331e-012
0.119642
-3.01981e-012
0.222393
-2.6299e-012
0.360976
2.7085e-012
0.519405
5.99965e-013
0.677608
-5.9508e-013
0.822238
-1.27454e-012
0.948778
1.23812e-012
1.0566
1.71774e-012
1.14806
7.30971e-013
1.22175
8.87068e-013
1.28535
-2.48468e-013
1.33713
-2.4869e-013
1.37099
-6.13287e-013
1.40294
-2.28706e-013
1.43344
-4.84057e-014
1.44976
-1.77636e-015
1.45224
6.95e-014
1.45373
-9.00169e-013
1.46537
1.69004e-011
1.47692
-1.68808e-010
1.47755
2.90343e-009
1.47139
-1.22028e-008
1.46056
2.01793e-007
1.45064
-3.04755e-007
1.44371
7.26157e-006
1.44594
2.8913e-005
1.45584
0.000340191
1.46425
0.00104746
1.46979
0.00146129
1.47173
0.00208651
1.47196
0.00252997
1.46875
0.00289338
1.44426
0.00264267
1.35387
0.0025603
1.22165
0.00287118
1.12169
0.00318196
1.0486
0.00369341
0.996627
0.00393019
0.96439
0.00413021
0.942446
0.00478066
0.927075
0.00536419
0.918378
0.00615908
0.911457
0.00666165
0.906086
0.00831575
0.907972
0.0092297
0.905389
0.00943542
0.905192
0.0106259
0.910993
0.0105418
0.911994
0.010636
0.0112917
3.37261e-007
-3.83604e-012
1.84199e-006
-7.03437e-012
9.30208e-006
4.06963e-012
4.30101e-005
-2.11031e-012
0.000184169
-7.02816e-012
0.000719863
-3.80407e-012
0.00255939
-1.58185e-012
0.00818519
-4.08562e-014
0.0226341
-5.55112e-013
0.0547277
-4.40536e-012
0.115776
-3.86891e-012
0.215207
-2.57128e-012
0.349312
2.06768e-012
0.502622
8.59757e-013
0.655713
-8.66418e-013
0.79567
-7.86482e-013
0.918121
6.10623e-013
1.02245
1.87628e-012
1.11096
4.30322e-013
1.18228
7.92255e-013
1.24382
-4.19886e-013
1.29392
-3.41727e-013
1.32669
-6.8634e-013
1.35761
-3.34399e-013
1.38712
-4.68514e-014
1.40291
-1.55431e-014
1.40531
-6.43929e-015
1.40676
-7.91811e-013
1.41802
1.46224e-011
1.42919
-1.48767e-010
1.42981
2.60825e-009
1.42385
-1.09323e-008
1.41337
1.83662e-007
1.40377
-2.69725e-007
1.39706
6.68013e-006
1.39922
2.73223e-005
1.4088
0.000317514
1.41694
0.00107638
1.4223
0.0014995
1.42418
0.00214817
1.42441
0.00260821
1.42134
0.0030167
1.39765
0.00276774
1.31021
0.00269213
1.18224
0.00303924
1.08544
0.00333651
1.01482
0.0036829
0.964496
0.00396419
0.933256
0.00425451
0.912168
0.00506243
0.897204
0.0055046
0.888483
0.00651419
0.88188
0.00676022
0.876918
0.00840911
0.877738
0.0100938
0.877029
0.0106038
0.875331
0.0107136
0.881701
0.010938
0.88281
0.0119312
0.011827
3.26364e-007
-3.93552e-012
1.78247e-006
-6.27853e-012
9.00151e-006
3.17524e-012
4.16203e-005
-2.03748e-012
0.000178218
-6.65512e-012
0.000696602
-3.40172e-012
0.00247669
-1.25855e-012
0.0079207
-2.31815e-013
0.0219027
-4.88498e-013
0.0529594
-4.41247e-012
0.112035
-3.81473e-012
0.208253
-2.60592e-012
0.338025
2.1334e-012
0.486381
5.13811e-013
0.634526
-3.47722e-013
0.76996
-7.47402e-013
0.888455
7.25642e-013
0.989417
1.78346e-012
1.07506
3.52163e-013
1.14407
8.79297e-013
1.20363
-5.15143e-013
1.25211
-6.60805e-013
1.28382
-7.77156e-013
1.31374
-3.33289e-013
1.3423
-1.60982e-013
1.35758
-9.88098e-014
1.35991
-1.24345e-014
1.3613
-7.32525e-013
1.3722
1.27073e-011
1.38301
-1.30268e-010
1.38361
2.33862e-009
1.37784
-9.75575e-009
1.3677
1.66712e-007
1.35841
-2.35281e-007
1.35192
6.11465e-006
1.35401
2.58428e-005
1.36328
0.000294045
1.37116
0.00109654
1.37635
0.00154024
1.37818
0.00220863
1.37841
0.00267713
1.37548
0.00310535
1.35256
0.00293019
1.26795
0.00285279
1.14407
0.003206
1.05037
0.00345423
0.982011
0.00366465
0.933363
0.00397399
0.902985
0.0044841
0.882355
0.00530837
0.867865
0.00587449
0.859425
0.00672142
0.85277
0.00729938
0.848921
0.00858302
0.848985
0.0105361
0.849009
0.011272
0.847039
0.0109735
0.853966
0.0117262
0.855275
0.0122011
0.012828
3.15818e-007
-3.70903e-012
1.72487e-006
-5.81046e-012
8.71065e-006
1.53477e-012
4.02755e-005
-2.30393e-012
0.000172459
-7.02283e-012
0.000674094
-3.03668e-012
0.00239666
-9.7522e-013
0.00766477
-9.34364e-013
0.021195
-8.57092e-013
0.0512481
-4.23128e-012
0.108415
-3.7339e-012
0.201524
-3.19211e-012
0.327102
1.96643e-012
0.470665
3.13527e-013
0.614023
-4.00124e-013
0.745081
-8.66418e-013
0.859747
1.16085e-012
0.957447
1.59206e-012
1.04032
8.17568e-013
1.10711
7.44738e-013
1.16474
-7.34524e-013
1.21165
-7.04103e-013
1.24234
-8.74412e-013
1.27129
-3.57714e-013
1.29893
-2.65121e-013
1.31372
-6.4837e-014
1.31596
-2.42029e-014
1.31732
-6.79456e-013
1.32786
1.0858e-011
1.33833
-1.13568e-010
1.3389
2.09508e-009
1.33332
-8.67984e-009
1.3235
1.51051e-007
1.31452
-2.0197e-007
1.30824
5.57218e-006
1.31026
2.44859e-005
1.31924
0.000270363
1.32685
0.00110766
1.33189
0.00158362
1.33367
0.00226989
1.3339
0.00274961
1.33108
0.0031659
1.30893
0.0030942
1.22704
0.00302633
1.10708
0.0033514
1.01643
0.00354626
0.950155
0.00381188
0.902922
0.00407011
0.873554
0.00475188
0.853658
0.00529153
0.839862
0.00609826
0.831524
0.00703311
0.825132
0.00819983
0.821947
0.00876427
0.821506
0.0106523
0.821122
0.0117927
0.820056
0.0114608
0.827112
0.0119846
0.829429
0.0124652
0.01335
3.05614e-007
-3.32445e-012
1.66914e-006
-5.84066e-012
8.42919e-006
1.43885e-013
3.89741e-005
-2.35456e-012
0.000166887
-7.22356e-012
0.000652312
-2.93277e-012
0.00231922
-7.1676e-013
0.00741711
-1.14486e-012
0.0205101
-1.27898e-012
0.0495922
-4.35474e-012
0.104912
-3.72236e-012
0.195012
-3.45945e-012
0.316533
1.88916e-012
0.455457
3.61045e-013
0.594182
-2.1938e-013
0.721006
-6.18172e-013
0.831967
8.01581e-013
0.92651
1.803e-012
1.00671
9.84102e-013
1.07133
4.47642e-013
1.1271
-5.6799e-013
1.1725
-8.51319e-013
1.2022
-7.53619e-013
1.23021
-2.80442e-013
1.25696
-2.82663e-013
1.27127
-1.08802e-014
1.27344
-7.99361e-015
1.27475
-6.32383e-013
1.28495
9.26237e-012
1.29508
-9.85214e-011
1.29564
1.87706e-009
1.29024
-7.70679e-009
1.28074
1.36719e-007
1.27204
-1.7024e-007
1.26597
5.05798e-006
1.26792
2.32499e-005
1.27661
0.000247096
1.28398
0.00110854
1.28886
0.00163657
1.2906
0.00233864
1.29084
0.00282552
1.28812
0.00320204
1.26668
0.00322159
1.18746
0.00320034
1.07126
0.00351336
0.983567
0.00366304
0.919462
0.00394007
0.873669
0.00426382
0.845367
0.00490746
0.825939
0.00544391
0.812885
0.00606389
0.804557
0.00769999
0.798933
0.00882848
0.795765
0.00908436
0.795226
0.0105659
0.793656
0.0121951
0.793638
0.0121517
0.800199
0.0123058
0.80358
0.0128657
0.013487
2.95739e-007
-3.61577e-012
1.6152e-006
-5.51204e-012
8.15683e-006
-1.26388e-012
3.77148e-005
-2.06057e-012
0.000161494
-7.19957e-012
0.000631235
-3.38218e-012
0.00224428
-5.86198e-013
0.00717744
-1.33404e-012
0.0198474
-1.42553e-012
0.0479898
-4.21352e-012
0.101522
-3.64775e-012
0.188711
-3.58913e-012
0.306305
2.29505e-012
0.44074
-2.72671e-013
0.574983
-9.05942e-014
0.697709
-2.67786e-013
0.805084
5.12923e-013
0.896572
1.82654e-012
0.97418
1.18172e-012
1.03672
3.64153e-013
1.09068
-6.56808e-013
1.13462
-9.2526e-013
1.16335
-5.8753e-013
1.19046
-3.17302e-013
1.21634
-3.14415e-013
1.23019
4.75175e-014
1.2323
3.88578e-014
1.23356
-4.28768e-013
1.24343
7.87037e-012
1.25323
-8.5123e-011
1.25378
1.68352e-009
1.24855
-6.83475e-009
1.23935
1.23708e-007
1.23094
-1.40491e-007
1.22506
4.57597e-006
1.22695
2.21324e-005
1.23536
0.000224658
1.24249
0.00109973
1.24722
0.00170173
1.24892
0.00241547
1.24916
0.00290264
1.24654
0.00323427
1.22577
0.00332839
1.14914
0.00336876
1.03661
0.00369475
0.951768
0.00379922
0.889758
0.00412218
0.845484
0.0044561
0.818083
0.00498412
0.799125
0.00570813
0.78622
0.00649347
0.777865
0.00806134
0.773249
0.0090266
0.77011
0.00972659
0.769993
0.0106796
0.767308
0.0121272
0.767867
0.0124812
0.77479
0.0126997
0.777756
0.0137405
0.0138708
2.86183e-007
-3.40616e-012
1.56301e-006
-4.83791e-012
7.89326e-006
-2.07212e-012
3.64961e-005
-2.07212e-012
0.000156276
-6.89049e-012
0.000610838
-3.23741e-012
0.00217177
-7.08766e-013
0.00694552
-1.37135e-012
0.0192061
-1.77369e-012
0.0464391
-3.80052e-012
0.0982413
-3.32534e-012
0.182613
-3.54028e-012
0.296408
1.96998e-012
0.426499
-6.18172e-013
0.556404
-3.01981e-014
0.675164
1.2701e-013
0.77907
-7.28306e-014
0.867602
2.05835e-012
0.942702
1.386e-012
1.00322
3.0953e-013
1.05544
-4.51195e-013
1.09796
-8.63087e-013
1.12576
-6.05738e-013
1.152
-3.83471e-013
1.17704
-2.69118e-013
1.19044
-1.00586e-013
1.19248
-7.99361e-015
1.1937
-2.84217e-013
1.20326
6.72107e-012
1.21274
-7.32787e-011
1.21326
1.5128e-009
1.2082
-6.05979e-009
1.19931
1.1198e-007
1.19117
-1.13053e-007
1.18548
4.1284e-006
1.18731
2.11318e-005
1.19545
0.000203284
1.20235
0.00108285
1.20691
0.00178563
1.20859
0.00247764
1.20884
0.00297621
1.20629
0.0032766
1.18619
0.00342177
1.11203
0.00352279
1.00313
0.00386176
0.920974
0.00394789
0.860996
0.0043238
0.818106
0.00474319
0.791408
0.00519723
0.77343
0.00563652
0.761468
0.00686447