/*--------------------------------*- C++ -*----------------------------------*\
| =========                 |                                                 |
| \\      /  F ield         | OpenFOAM: The Open Source CFD Toolbox           |
|  \\    /   O peration     | Version:  5.x                                   |
|   \\  /    A nd           | Web:      www.OpenFOAM.org                      |
|    \\/     M anipulation  |                                                 |
\*---------------------------------------------------------------------------*/
/*   Windows 32 and 64 bit porting by blueCAPE: http://www.bluecape.com.pt   *\
|  Based on Windows porting (2.0.x v4) by Symscape: http://www.symscape.com   |
\*---------------------------------------------------------------------------*/
FoamFile
{
    version     2.0;
    format      ascii;
    class       surfaceScalarField;
    location    "0.006";
    object      phi_0;
}
// * * * * * * * * * * * * * * * * * * * * * * * * * * * * * * * * * * * * * //

dimensions      [1 0 -1 0 0 0 0];

internalField   nonuniform List<scalar> 
19740
(
5.87132e-007
3.41061e-013
3.20732e-006
-7.37188e-013
1.62006e-005
1.60894e-012
7.49229e-005
-1.39089e-012
0.000320893
-4.08562e-013
0.00125456
-1.2883e-012
0.00446158
2.63345e-013
0.0142733
7.48734e-013
0.0394815
6.03073e-013
0.0954938
-4.7029e-013
0.202073
1.35891e-013
0.375733
5.65326e-013
0.610042
2.08722e-014
0.877993
-1.21858e-012
1.14562
-6.36602e-013
1.39031
-6.16174e-013
1.60441
-3.5083e-013
1.78684
9.62341e-013
1.94158
-1.33893e-013
2.06628
3.888e-013
2.17389
3.02425e-013
2.26148
2.56462e-013
2.31878
2.02394e-013
2.37285
1.49547e-013
2.42445
-1.9873e-013
2.45203
-2.72782e-013
2.45622
-6.62803e-014
2.45878
-5.27356e-013
2.47849
8.62355e-012
2.49802
-8.16246e-011
2.49906
1.25292e-009
2.48862
-5.12599e-009
2.47028
7.2658e-008
2.45352
-8.07206e-008
2.44181
1.98827e-006
2.44559
1.06518e-005
2.46239
5.62787e-005
2.47648
9.02693e-005
2.48582
0.000276587
2.4891
0.000171743
2.48938
0.000175976
2.48419
0.000209177
2.44253
0.00022593
2.28908
0.000233875
2.06507
0.000253104
1.89683
0.000216617
1.77256
0.000279933
1.68567
0.00032784
1.62982
0.00046561
1.59212
0.00067873
1.56631
0.000516731
1.54858
0.000469933
1.54076
0.000471429
1.53647
4.99165e-005
1.53012
-0.000138046
1.52609
0.000538435
1.53691
0.000655607
1.54017
0.000574444
1.53589
0.00101298
0.000259751
5.68161e-007
1.06404e-012
3.10368e-006
-1.22125e-012
1.56771e-005
3.41771e-012
7.2502e-005
-2.04903e-012
0.000310525
-8.79297e-013
0.00121403
-2.12808e-012
0.00431742
2.94875e-013
0.0138121
4.90274e-013
0.0382058
5.30243e-013
0.0924082
-1.55831e-012
0.195544
3.50386e-013
0.363593
8.88623e-013
0.590331
-9.29923e-013
0.849623
-1.12355e-012
1.1086
-1.27676e-013
1.34539
-5.63327e-013
1.55257
-3.12639e-013
1.7291
1.54099e-012
1.87885
2.48468e-013
1.99951
7.19202e-013
2.10365
-2.58904e-013
2.18841
2.4436e-013
2.24386
3.4861e-014
2.29618
2.18159e-013
2.34611
-3.2474e-013
2.3728
-4.07563e-013
2.37686
-3.052e-013
2.37934
-1.23623e-012
2.39841
1.63181e-011
2.4173
-1.55495e-010
2.41831
2.39455e-009
2.40821
-9.78974e-009
2.39046
1.39514e-007
2.37424
-1.58307e-007
2.36291
3.84651e-006
2.36657
2.01813e-005
2.38282
0.000111536
2.39646
0.000171812
2.40551
0.000531549
2.40868
0.000368228
2.40899
0.00037298
2.40398
0.000449164
2.36369
0.000463617
2.21507
0.000479581
1.99843
0.00052518
1.83534
0.000458493
1.71519
0.000514935
1.63125
0.000649696
1.57745
0.000700335
1.54082
0.000885986
1.51569
0.000862217
1.49941
0.000933387
1.49078
0.00110771
1.48805
0.000748756
1.48087
8.02473e-005
1.47642
0.000747436
1.48862
0.00135709
1.49199
0.000959933
1.48482
0.00146242
0.00119252
5.49802e-007
1.78257e-012
3.0034e-006
-1.63025e-012
1.51706e-005
4.07852e-012
7.01593e-005
-4.07541e-012
0.000300491
-1.01519e-012
0.0011748
-1.50946e-012
0.00417791
2.89102e-013
0.0133658
3.02869e-013
0.0369713
3.13083e-013
0.0894223
-1.69909e-012
0.189225
-6.98108e-013
0.351844
3.06866e-013
0.571256
-1.58318e-012
0.82217
-9.25926e-013
1.07278
1.21236e-013
1.30192
-4.91829e-013
1.5024
-4.88498e-013
1.67323
2.12519e-012
1.81814
4.17666e-013
1.93491
9.11049e-013
2.03568
-6.23945e-014
2.1177
-5.01821e-014
2.17135
-6.36158e-014
2.22198
8.88178e-015
2.2703
-1.3467e-013
2.29613
-4.13891e-013
2.30006
-3.1819e-013
2.30245
-1.59139e-012
2.32091
2.28039e-011
2.33919
-2.18458e-010
2.34017
3.37386e-009
2.33039
-1.37986e-008
2.31322
1.97977e-007
2.29752
-2.31704e-007
2.28656
5.51964e-006
2.2901
2.81305e-005
2.30583
0.000165288
2.31903
0.000249006
2.3278
0.000738406
2.33089
0.000568397
2.33127
0.000582853
2.3263
0.000670524
2.2874
0.000713903
2.14349
0.000753053
1.93388
0.000742733
1.77602
0.000600899
1.6599
0.000633514
1.57854
0.000848371
1.52685
0.000839
1.49104
0.0011365
1.46684
0.00129783
1.45152
0.00108207
1.44126
0.00150064
1.4389
0.00148567
1.43646
0.00107057
1.42925
0.00133003
1.43841
0.0020089
1.44511
0.00177608
1.43673
0.00156657
0.00220375
5.32037e-007
2.17737e-012
2.90635e-006
-2.98561e-012
1.46804e-005
4.75708e-012
6.78923e-005
-6.21281e-012
0.000290781
-1.15374e-012
0.00113684
-1.45528e-012
0.00404291
-5.9508e-014
0.0129339
5.68878e-013
0.0357766
-1.45661e-013
0.0865329
-1.99529e-012
0.183111
-9.73444e-013
0.340475
-4.08562e-013
0.552797
-1.3185e-012
0.795604
-4.22773e-013
1.03812
7.2431e-013
1.25985
-8.84848e-013
1.45386
-7.44071e-013
1.61917
1.41598e-012
1.75939
9.38138e-013
1.87238
1.46794e-012
1.9699
2.15827e-013
2.04927
-2.98206e-013
2.10119
-3.8225e-013
2.15019
-1.38445e-013
2.19694
-1.9984e-013
2.22194
-2.53353e-013
2.22574
-4.17444e-013
2.22806
-1.84952e-012
2.24592
2.80945e-011
2.26361
-2.68314e-010
2.26455
4.16062e-009
2.25509
-1.70349e-008
2.23848
2.46303e-007
2.22328
-2.98705e-007
2.21267
6.96285e-006
2.21611
3.42987e-005
2.23132
0.000216433
2.24412
0.000324428
2.25261
0.00087893
2.25562
0.00076463
2.25604
0.000797451
2.25114
0.000888183
2.21353
0.000959627
2.07419
0.00100006
1.87136
0.000940187
1.71864
0.000716513
1.60639
0.000663371
1.52744
0.000862371
1.47772
0.00107195
1.44288
0.00146379
1.41968
0.00161095
1.40545
0.00151992
1.39467
0.00162799
1.39161
0.0019533
1.39115
0.00215206
1.38416
0.00212286
1.39014
0.00236923
1.39814
0.00258561
1.3916
0.00229741
0.00301656
5.14846e-007
2.25242e-012
2.81244e-006
-3.85381e-012
1.4206e-005
5.84732e-012
6.56985e-005
-7.33325e-012
0.000281386
-1.5179e-012
0.00110011
-1.75104e-012
0.00391228
4.21441e-013
0.012516
6.73683e-013
0.0346206
1.58096e-013
0.0837368
-2.88036e-012
0.177194
-9.54348e-013
0.329474
-8.71747e-013
0.534935
-1.7133e-012
0.769896
-1.49658e-013
1.00457
1.10978e-012
1.21914
-1.6267e-012
1.40688
-5.278e-013
1.56685
2.15561e-012
1.70254
5.89528e-013
1.81188
1.2581e-012
1.90625
4.16556e-013
1.98305
-6.67688e-013
2.0333
-1.36113e-013
2.08071
-2.51021e-013
2.12595
-2.7045e-013
2.15015
-2.51688e-013
2.15382
-1.55209e-013
2.15606
-2.01195e-012
2.17335
3.20978e-011
2.19047
-3.04659e-010
2.19138
4.74404e-009
2.18223
-1.94572e-008
2.16615
2.83687e-007
2.15145
-3.56873e-007
2.14118
8.14879e-006
2.1445
3.86786e-005
2.15922
0.000263845
2.17162
0.000400063
2.17984
0.000951241
2.18277
0.000976279
2.18321
0.00103405
2.17839
0.0011332
2.142
0.00116511
2.00711
0.00121121
1.81082
0.00116335
1.66306
0.000942561
1.55441
0.000764449
1.47793
0.000867302
1.42991
0.00117995
1.3962
0.00165258
1.37401
0.00187337
1.36037
0.00193598
1.34962
0.00207305
1.34643
0.00240725
1.34615
0.0027613
1.3392
0.00276433
1.34418
0.00302703
1.35253
0.00303314
1.34869
0.00329541
0.00371731
4.9821e-007
9.92095e-013
2.72156e-006
-5.46629e-012
1.3747e-005
6.14753e-012
6.35757e-005
-7.64766e-012
0.000272294
-2.91722e-012
0.00106456
-1.68088e-012
0.00378586
5.23137e-013
0.0121116
8.76188e-013
0.033502
7.6783e-013
0.0810311
-2.8888e-012
0.171469
-6.91891e-013
0.318828
-5.72431e-013
0.51765
-1.55564e-012
0.74502
7.86038e-014
0.972113
2.19824e-013
1.17975
-7.24754e-013
1.36142
-6.21059e-013
1.51622
1.69487e-012
1.64753
7.81153e-013
1.75334
9.03499e-013
1.84465
2.88658e-013
1.91898
-4.06786e-013
1.9676
-7.88258e-014
2.01348
-3.46834e-013
2.05726
-1.96843e-013
2.08067
-4.00457e-013
2.08423
-2.85327e-014
2.0864
-2.01206e-012
2.10312
3.4706e-011
2.11969
-3.27925e-010
2.12057
5.12873e-009
2.11171
-2.10835e-008
2.09616
3.10112e-007
2.08193
-4.04534e-007
2.07199
9.06961e-006
2.07521
4.13934e-005
2.08945
0.000306325
2.10146
0.000471483
2.10943
0.000988202
2.11227
0.00118418
2.11268
0.0012767
2.10801
0.0013826
2.07278
0.00136679
1.94227
0.00143462
1.75227
0.00139128
1.60927
0.00124803
1.50406
0.000846101
1.42989
0.000849784
1.38364
0.00116689
1.35116
0.00161137
1.32994
0.00212534
1.31632
0.002576
1.30652
0.00267744
1.30311
0.00272192
1.3024
0.00298095
1.29601
0.00350329
1.30048
0.00403399
1.309
0.00379206
1.30614
0.00379946
0.00446746
4.82112e-007
8.64198e-013
2.63363e-006
-6.24745e-012
1.33028e-005
6.84253e-012
6.15214e-005
-7.97495e-012
0.000263495
-3.69393e-012
0.00103016
-2.29106e-012
0.00366354
5.53335e-013
0.0117202
1.44107e-012
0.0324194
7.02549e-013
0.0784128
-3.45324e-012
0.165928
-1.3336e-012
0.308526
-5.28022e-013
0.500924
-1.13332e-012
0.720946
4.58744e-013
0.940702
-5.08038e-013
1.14163
-5.20473e-013
1.31743
-4.83835e-013
1.46723
1.82587e-012
1.59429
5.60219e-013
1.69668
9.00391e-013
1.78505
1.20792e-013
1.85697
-1.31006e-013
1.90402
-7.77156e-015
1.94842
-2.4214e-013
1.99079
-1.90736e-013
2.01344
-2.3237e-013
2.01688
-2.32148e-013
2.01898
-2.13218e-012
2.03516
3.5859e-011
2.0512
-3.39583e-010
2.05205
5.33125e-009
2.04348
-2.19767e-008
2.02842
3.26193e-007
2.01466
-4.40716e-007
2.00504
9.73032e-006
2.00816
4.26899e-005
2.02193
0.000342619
2.03357
0.000536478
2.04129
0.00102167
2.04402
0.00134853
2.0444
0.00148258
2.03989
0.00159668
2.00578
0.00158576
1.87956
0.00165226
1.6957
0.00160198
1.55727
0.00151741
1.45538
0.000933244
1.38341
0.000853912
1.3386
0.00123402
1.3074
0.00175022
1.28705
0.00245696
1.27272
0.0033558
1.26397
0.00315131
1.26152
0.00303402
1.26084
0.00336916
1.25571
0.00408837
1.25812
0.00477861
1.26543
0.00511623
1.26537
0.00440407
0.00454969
4.66534e-007
4.81393e-013
2.54853e-006
-6.75193e-012
1.2873e-005
7.20313e-012
5.95335e-005
-8.36398e-012
0.000254981
-4.11315e-012
0.000996874
-2.81242e-012
0.00354516
-6.66134e-014
0.0113415
2.02105e-012
0.0313719
6.22613e-013
0.0758791
-4.20419e-012
0.160567
-1.43574e-012
0.298557
-9.22817e-013
0.484738
4.15223e-013
0.697651
6.01741e-013
0.910306
-4.91607e-013
1.10474
-5.36904e-013
1.27486
-2.26041e-013
1.41982
1.4122e-012
1.54278
2.84439e-013
1.64186
1.19194e-012
1.72737
-1.09468e-013
1.79697
1.93179e-014
1.8425
-1.11022e-014
1.88546
-2.99649e-013
1.92646
-3.12639e-013
1.94838
-3.01648e-013
1.95171
-3.85025e-013
1.95374
-2.13296e-012
1.9694
3.5897e-011
1.98492
-3.40824e-010
1.98575
5.37588e-009
1.97745
-2.22296e-008
1.96288
3.33017e-007
1.94956
-4.65241e-007
1.94025
1.01472e-005
1.94328
4.28483e-005
1.9566
0.00037172
1.96787
0.000597397
1.97535
0.00105841
1.97797
0.00145234
1.97831
0.00163255
1.97394
0.00175077
1.94093
0.00179097
1.81885
0.00186312
1.6409
0.00176318
1.50687
0.00170803
1.40836
0.00105505
1.33867
0.000966876
1.29505
0.00148253
1.26527
0.0019615
1.24581
0.00293343
1.2317
0.00352992
1.22224
0.00364858
1.22054
0.00371918
1.22062
0.00405743
1.21675
0.00458442
1.21691
0.00504097
1.22299
0.0052782
1.22621
0.00509805
0.00512629
4.51459e-007
1.49214e-013
2.46618e-006
-7.09566e-012
1.2457e-005
7.03615e-012
5.76099e-005
-8.4075e-012
0.000246742
-4.45022e-012
0.000964663
-3.08331e-012
0.00343061
-3.17968e-013
0.010975
2.25597e-012
0.0303582
-4.71179e-013
0.0734273
-5.00489e-012
0.155379
-1.85052e-012
0.28891
-5.13367e-013
0.469075
1.45794e-012
0.675108
8.44214e-013
0.880892
-2.07834e-013
1.06904
-3.193e-013
1.23367
-4.9627e-013
1.37394
1.91958e-012
1.49293
4.21663e-013
1.58881
1.24145e-012
1.67155
-1.56097e-013
1.7389
-2.66454e-014
1.78296
-1.04361e-013
1.82454
-4.70513e-013
1.86421
-3.28293e-013
1.88542
-3.54716e-013
1.88865
-3.01315e-013
1.89061
-2.05691e-012
1.90577
3.50887e-011
1.92078
-3.33705e-010
1.92158
5.2904e-009
1.91356
-2.19506e-008
1.89946
3.31935e-007
1.88656
-4.78269e-007
1.87756
1.03406e-005
1.88049
4.21722e-005
1.89338
0.00039307
1.9043
0.000655858
1.91154
0.00110268
1.91405
0.00150225
1.91437
0.00172955
1.9101
0.00185428
1.87815
0.00196
1.76003
0.00204821
1.58782
0.00194073
1.4581
0.00186638
1.36293
0.00125632
1.29569
0.00119892
1.25356
0.00161947
1.22464
0.0021423
1.20559
0.00331568
1.19173
0.00370011
1.18272
0.00389026
1.18158
0.0046192
1.18158
0.0048956
1.17761
0.00471753
1.17738
0.00512613
1.18391
0.00530422
1.18773
0.00598412
0.00604999
4.36871e-007
-3.4639e-014
2.38649e-006
-6.9651e-012
1.20545e-005
7.81863e-012
5.57484e-005
-7.75824e-012
0.000238769
-4.64162e-012
0.000933493
-3.30846e-012
0.00331976
-9.32587e-015
0.0106204
2.88525e-012
0.0293773
-9.17044e-013
0.0710547
-5.5933e-012
0.150358
-2.02993e-012
0.279574
-2.44693e-013
0.453918
1.79723e-012
0.653294
6.35492e-013
0.852428
-1.9984e-014
1.0345
-3.62821e-013
1.19381
1.13243e-013
1.32954
1.76836e-012
1.44469
6.52811e-013
1.53747
1.12887e-012
1.61754
-3.35287e-014
1.68272
-1.09246e-013
1.72535
6.43929e-014
1.76558
-4.78284e-013
1.80397
-4.6485e-013
1.8245
-3.03868e-013
1.82762
-3.42948e-013
1.82952
-1.88916e-012
1.84419
3.35862e-011
1.85872
-3.20165e-010
1.85949
5.10399e-009
1.85172
-2.12517e-008
1.83808
3.24434e-007
1.82561
-4.80368e-007
1.81689
1.0335e-005
1.81973
4.09218e-005
1.8322
0.00040678
1.84277
0.00071182
1.84978
0.00115296
1.85221
0.00152995
1.85249
0.00180276
1.84835
0.00193137
1.81738
0.00210103
1.70308
0.00219917
1.53645
0.00214631
1.41094
0.00202001
1.31897
0.0015077
1.25414
0.00147578
1.21339
0.00185475
1.18539
0.00247943
1.16641
0.00324615
1.15334
0.0040046
1.14579
0.00433218
1.14331
0.00493805
1.14286
0.00550151
1.13902
0.00560392
1.13924
0.00565668
1.14613
0.00619925
1.14993
0.0072418
0.00635083
4.22755e-007
-1.48415e-012
2.30938e-006
-6.51834e-012
1.1665e-005
7.75202e-012
5.3947e-005
-7.37543e-012
0.000231054
-4.82192e-012
0.000903329
-3.30314e-012
0.00321249
-5.86198e-014
0.0102772
2.54419e-012
0.028428
-7.6783e-013
0.0687588
-5.70921e-012
0.1455
-2.34213e-012
0.270541
-7.18092e-013
0.439251
2.97007e-012
0.632185
5.96412e-013
0.824885
-1.01563e-012
1.00107
-5.66214e-013
1.15523
6.68798e-013
1.28658
2.28528e-012
1.39801
1.95843e-013
1.48779
9.31699e-013
1.56528
-5.92415e-013
1.62834
-1.33449e-013
1.6696
-1.84297e-013
1.70853
-4.36762e-013
1.74568
-4.09006e-013
1.76555
-1.76859e-013
1.76857
-1.86073e-013
1.77041
-1.88549e-012
1.7846
3.14986e-011
1.79866
-3.02021e-010
1.79941
4.844e-009
1.79189
-2.02401e-008
1.77869
3.12003e-007
1.76662
-4.72541e-007
1.75819
1.01591e-005
1.76094
3.93109e-005
1.773
0.000413217
1.78323
0.000765188
1.79001
0.00120855
1.79236
0.00157259
1.79263
0.0018813
1.78861
0.00198852
1.75858
0.00219675
1.64798
0.00229842
1.48679
0.00232086
1.36534
0.00220662
1.27633
0.00179167
1.21365
0.00178096
1.17419
0.00218609
1.14704
0.00306234
1.1289
0.00325123
1.11625
0.00426519
1.10941
0.00488969
1.10653
0.00513385
1.1055
0.00579752
1.10148
0.00702816
1.10281
0.00676728
1.11031
0.00672722
1.11144
0.00796732
0.0067594
4.09095e-007
-2.22844e-012
2.23476e-006
-6.62759e-012
1.12881e-005
7.52198e-012
5.22039e-005
-6.95266e-012
0.000223588
-5.85487e-012
0.000874141
-3.13261e-012
0.00310869
-6.29718e-013
0.00994516
1.91047e-012
0.0275095
-3.25961e-013
0.0665371
-6.19327e-012
0.140798
-2.50866e-012
0.261799
-1.2168e-012
0.425058
3.65619e-012
0.611758
4.82281e-013
0.798231
-1.27942e-012
0.968727
-2.63345e-013
1.1179
7.02993e-013
1.24501
1.95666e-012
1.35283
2.911e-013
1.43972
9.58789e-013
1.5147
-5.42899e-013
1.57573
-2.69118e-013
1.61565
-3.20188e-013
1.65333
-2.12275e-013
1.68928
-4.59632e-013
1.7085
-1.50435e-013
1.71142
-1.108e-013
1.7132
-1.78801e-012
1.72694
2.89248e-011
1.74054
-2.80696e-010
1.74127
4.53528e-009
1.73399
-1.90129e-008
1.72122
2.96047e-007
1.70953
-4.56179e-007
1.70137
9.84341e-006
1.70404
3.75126e-005
1.71571
0.000412887
1.72562
0.000817121
1.73216
0.00126604
1.73445
0.00163822
1.73469
0.00197496
1.73078
0.0020754
1.7017
0.00227031
1.5947
0.00235119
1.43881
0.00247375
1.32125
0.00240919
1.23496
0.00212487
1.17413
0.00219919
1.13598
0.00256899
1.11007
0.00333482
1.09293
0.00370515
1.08017
0.00467938
1.07323
0.0056097
1.07097
0.00592096
1.0703
0.00621789
1.0645
0.00712074
1.067
0.00732604
1.07584
0.00719075
1.07363
0.0080857
0.00763636
3.95876e-007
-2.64588e-012
2.16255e-006
-5.99698e-012
1.09233e-005
6.68088e-012
5.05171e-005
-5.33085e-012
0.000216364
-7.2875e-012
0.000845896
-3.01803e-012
0.00300824
-9.32587e-013
0.00962381
1.57563e-012
0.0266206
-2.12275e-013
0.0643871
-6.37801e-012
0.136249
-2.5997e-012
0.25334
-1.24656e-012
0.411324
3.82538e-012
0.591991
2.33591e-013
0.772438
-9.7744e-013
0.937425
-1.0747e-012
1.08178
6.54587e-013
1.20478
1.83231e-012
1.30912
6.59028e-013
1.3932
1.34359e-012
1.46576
-4.54303e-013
1.52481
-2.80664e-013
1.56345
-3.11307e-013
1.5999
-1.27232e-013
1.63469
-2.52021e-013
1.65329
-1.36446e-013
1.65612
-1.32228e-013
1.65785
-1.61826e-012
1.67113
2.64081e-011
1.6843
-2.57464e-010
1.685
4.19867e-009
1.67796
-1.76536e-008
1.6656
2.77809e-007
1.65429
-4.32941e-007
1.6464
9.41938e-006
1.64898
3.56521e-005
1.66027
0.000406422
1.66986
0.000868971
1.67618
0.00131875
1.6784
0.00172871
1.67863
0.00209269
1.67482
0.002234
1.64669
0.00231564
1.54316
0.00236971
1.39239
0.00258037
1.27862
0.0025545
1.19507
0.00244941
1.13608
0.00256985
1.09918
0.0030186
1.07389
0.00372574
1.0575
0.00435239
1.04526
0.00501233
1.03823
0.00599905
1.03619
0.00671914
1.03613
0.00688849
1.0292
0.00676696
1.03177
0.00732049
1.04171
0.00813906
1.03873
0.00802097
0.00851988
3.83085e-007
-2.76756e-012
2.09267e-006
-6.53166e-012
1.05704e-005
6.43485e-012
4.88847e-005
-4.29967e-012
0.000209373
-8.04157e-012
0.000818563
-3.61666e-012
0.00291104
-6.78568e-013
0.00931285
1.19726e-012
0.0257604
1.12799e-013
0.0623066
-6.08757e-012
0.131846
-2.39897e-012
0.245154
-1.27853e-012
0.398033
3.68106e-012
0.572862
2.13163e-013
0.747479
-3.47722e-013
0.907135
-1.56675e-012
1.04683
5.61773e-013
1.16585
1.62848e-012
1.26682
9.20597e-013
1.34818
1.59339e-012
1.41839
-3.63265e-013
1.47554
-4.23217e-013
1.51293
-3.63709e-013
1.54821
4.9738e-014
1.58187
-2.4758e-013
1.59987
-2.81331e-013
1.60261
-1.1946e-013
1.60428
-1.48936e-012
1.61714
2.38372e-011
1.62987
-2.33681e-010
1.63056
3.85122e-009
1.62374
-1.62309e-008
1.61178
2.58335e-007
1.60084
-4.0464e-007
1.5932
8.91885e-006
1.5957
3.37886e-005
1.60663
0.000394794
1.61591
0.000920447
1.62201
0.00135925
1.62416
0.00183753
1.62439
0.00222369
1.6207
0.00242835
1.59349
0.00235692
1.49329
0.00236667
1.34746
0.00261981
1.23744
0.00270636
1.15643
0.00287328
1.09908
0.00319201
1.06317
0.00361333
1.03865
0.00380579
1.02323
0.00469892
1.01189
0.00479338
1.00514
0.00654114
1.00258
0.00715549
1.00204
0.00712404
0.996336
0.00744105
0.998766
0.00802556
1.00764
0.00904355
1.00603
0.00876961
0.00891525
3.70707e-007
-2.89635e-012
2.02505e-006
-7.09566e-012
1.02288e-005
5.99432e-012
4.73052e-005
-3.25073e-012
0.000202607
-8.02558e-012
0.000792113
-4.13092e-012
0.00281697
-5.42677e-013
0.00901193
6.27054e-013
0.024928
-1.95399e-014
0.0602934
-5.64349e-012
0.127586
-1.96332e-012
0.237232
-1.42819e-012
0.385172
3.4146e-012
0.554352
6.80345e-013
0.723327
1.56319e-013
0.877824
-1.36113e-012
1.013
2.78888e-013
1.12818
1.92513e-012
1.22589
1.01652e-012
1.30462
1.55342e-012
1.37256
-4.04343e-013
1.42787
-4.71623e-013
1.46405
-5.14699e-013
1.49818
-1.47216e-013
1.53076
-3.73035e-013
1.54818
-2.18492e-013
1.55082
-5.973e-014
1.55244
-1.33538e-012
1.56488
2.12542e-011
1.57721
-2.10221e-010
1.57787
3.50622e-009
1.57128
-1.47988e-008
1.5597
2.38456e-007
1.54911
-3.72813e-007
1.54172
8.36825e-006
1.54414
3.19724e-005
1.55472
0.000378958
1.5637
0.000969404
1.5696
0.00139014
1.57167
0.00194412
1.57191
0.0023458
1.56835
0.00260563
1.54203
0.00242935
1.44507
0.00238577
1.30398
0.00265085
1.19755
0.00287349
1.1192
0.00325617
1.06376
0.00367152
1.02909
0.00392295
1.00513
0.00410623
0.989576
0.00488045
0.979544
0.00527693
0.972631
0.00662453
0.969995
0.00770925
0.969647
0.00721051
0.965367
0.00783595
0.967481
0.00943465
0.974085
0.0101643
0.973512
0.0094331
0.00946637
3.58728e-007
-3.39817e-012
1.95962e-006
-7.29283e-012
9.89831e-006
4.83613e-012
4.57766e-005
-2.21068e-012
0.000196061
-7.52109e-012
0.000766519
-4.00746e-012
0.00272595
-9.0683e-013
0.00872073
4.4853e-013
0.0241226
-2.75335e-013
0.0583452
-5.11857e-012
0.123463
-2.35367e-012
0.229567
-2.04858e-012
0.372726
2.92477e-012
0.536439
8.32667e-013
0.699954
-2.46914e-013
0.849459
-9.88987e-013
0.980271
6.74127e-013
1.09173
1.96376e-012
1.18628
1.05915e-012
1.26246
1.14064e-012
1.32821
-3.77254e-013
1.38173
-4.59632e-013
1.41674
-5.56666e-013
1.44977
-1.25677e-013
1.4813
-2.18048e-013
1.49815
-2.02505e-013
1.50071
1.23013e-013
1.50228
-1.11733e-012
1.51432
1.88977e-011
1.52625
-1.87493e-010
1.52689
3.1733e-009
1.52051
-1.33979e-008
1.5093
2.18796e-007
1.49906
-3.38833e-007
1.49191
7.7909e-006
1.49425
3.02245e-005
1.50448
0.000359985
1.51317
0.00101259
1.51888
0.00142456
1.52088
0.00202718
1.52112
0.00244787
1.51772
0.00275635
1.49224
0.00253014
1.39843
0.00245449
1.26186
0.00273132
1.15889
0.00301028
1.08322
0.00353553
1.02965
0.00387357
0.996367
0.00401037
0.973422
0.00442446
0.957902
0.00507804
0.949009
0.0059194
0.941614
0.00689777
0.937313
0.00795834
0.938905
0.00814913
0.935352
0.00823978
0.936611
0.0104262
0.941843
0.0104889
0.941788
0.00975351
0.0105329
3.47137e-007
-3.93818e-012
1.8963e-006
-7.19425e-012
9.57847e-006
4.34053e-012
4.42975e-005
-1.98686e-012
0.000189726
-7.24665e-012
0.000741751
-4.00924e-012
0.00263787
-1.47349e-012
0.00843895
1.23457e-013
0.0233431
-1.30562e-013
0.0564599
-4.75797e-012
0.119474
-3.00737e-012
0.222149
-2.5997e-012
0.360682
2.71161e-012
0.519106
5.94191e-013
0.677337
-5.86198e-013
0.822012
-1.25677e-012
0.948596
1.23546e-012
1.05645
1.71685e-012
1.14794
7.2653e-013
1.22167
8.94174e-013
1.2853
-2.53575e-013
1.33708
-2.46247e-013
1.37096
-6.1684e-013
1.40293
-2.25597e-013
1.43343
-5.10703e-014
1.44974
-4.21885e-015
1.45222
6.23945e-014
1.45374
-8.90843e-013
1.46539
1.65389e-011
1.47693
-1.66005e-010
1.47755
2.85874e-009
1.47138
-1.20581e-008
1.46053
1.99814e-007
1.45062
-3.03907e-007
1.4437
7.20594e-006
1.44597
2.85562e-005
1.45587
0.000338776
1.46428
0.00104843
1.4698
0.00146549
1.47174
0.0020901
1.47197
0.00253265
1.46874
0.00289649
1.44408
0.00264269
1.35332
0.00255909
1.22115
0.00286928
1.1214
0.00318053
1.04828
0.0036974
0.996457
0.00394028
0.964387
0.00412562
0.942308
0.00477012
0.927034
0.00536435
0.918385
0.00619246
0.911437
0.00669237
0.906092
0.00827545
0.907908
0.00921997
0.905162
0.00947544
0.905653
0.0106546
0.911025
0.0105351
0.911349
0.0106949
0.0112528
3.3592e-007
-3.8467e-012
1.83503e-006
-7.00062e-012
9.26897e-006
4.11049e-012
4.28662e-005
-2.11742e-012
0.000183595
-7.02371e-012
0.000717783
-3.83249e-012
0.00255264
-1.59872e-012
0.00816627
-1.06581e-014
0.0225888
-5.71987e-013
0.0546356
-4.40803e-012
0.115614
-3.8467e-012
0.214971
-2.57572e-012
0.349028
2.05791e-012
0.502333
8.51319e-013
0.655451
-8.52651e-013
0.795451
-7.88702e-013
0.917945
6.27054e-013
1.02232
1.87139e-012
1.11085
4.32099e-013
1.1822
7.91811e-013
1.24377
-4.21663e-013
1.29388
-3.47056e-013
1.32666
-6.85452e-013
1.3576
-3.31957e-013
1.38712
-4.75175e-014
1.4029
-1.79856e-014
1.4053
-1.19904e-014
1.40676
-7.75602e-013
1.41804
1.42972e-011
1.42921
-1.46212e-010
1.42981
2.56729e-009
1.42383
-1.07994e-008
1.41334
1.81821e-007
1.40375
-2.68913e-007
1.39705
6.62699e-006
1.39925
2.69899e-005
1.40883
0.000316049
1.41696
0.0010769
1.42232
0.00150452
1.4242
0.00215123
1.42442
0.00261083
1.42133
0.00301949
1.39747
0.00276833
1.30967
0.00269148
1.18175
0.00303722
1.08516
0.00333441
1.01452
0.00368781
0.964323
0.00397119
0.93326
0.00425485
0.912045
0.00504924
0.897164
0.00550728
0.888487
0.00656625
0.881783
0.00674843
0.876967
0.0083571
0.877732
0.0101014
0.876676
0.0106267
0.875737
0.0107761
0.881739
0.0109176
0.882059
0.0119973
0.0117601
3.25066e-007
-3.96128e-012
1.77573e-006
-6.30518e-012
8.96947e-006
3.19833e-012
4.14811e-005
-2.02771e-012
0.000177663
-6.63114e-012
0.00069459
-3.4408e-012
0.00247015
-1.28342e-012
0.0079024
-2.18492e-013
0.0218589
-4.96492e-013
0.0528702
-4.44977e-012
0.111878
-3.8014e-012
0.208025
-2.58815e-012
0.33775
2.14762e-012
0.486101
5.01821e-013
0.634272
-3.69038e-013
0.769748
-7.53175e-013
0.888284
7.18536e-013
0.989283
1.77636e-012
1.07496
3.54827e-013
1.144
8.61089e-013
1.20358
-5.07594e-013
1.25207
-6.58584e-013
1.2838
-7.6894e-013
1.31373
-3.32623e-013
1.3423
-1.61871e-013
1.35757
-9.63674e-014
1.35989
-1.64313e-014
1.36131
-7.2542e-013
1.37222
1.24175e-011
1.38303
-1.27958e-010
1.38361
2.3012e-009
1.37783
-9.6345e-009
1.36767
1.65009e-007
1.35839
-2.34548e-007
1.35191
6.06438e-006
1.35403
2.55334e-005
1.36331
0.000292558
1.37118
0.00109657
1.37637
0.00154587
1.37819
0.00221107
1.37843
0.00267917
1.37547
0.0031073
1.35238
0.00293199
1.26743
0.00285427
1.14359
0.00320661
1.05011
0.00345401
0.981721
0.00366593
0.933195
0.00397656
0.902975
0.00449696
0.882248
0.00531324
0.867829
0.00587197
0.859366
0.00672528
0.852698
0.00727775
0.849029
0.00857799
0.848991
0.0105592
0.848685
0.0112776
0.847342
0.0109851
0.854014
0.011693
0.854406
0.0122778
0.0128286
3.14562e-007
-3.73479e-012
1.71836e-006
-5.85221e-012
8.67965e-006
1.53388e-012
4.01407e-005
-2.34923e-012
0.000171922
-7.02371e-012
0.000672146
-3.08109e-012
0.00239034
-9.87654e-013
0.00764706
-9.05942e-013
0.0211526
-8.45546e-013
0.0511618
-4.26059e-012
0.108263
-3.73568e-012
0.201303
-3.19833e-012
0.326837
1.97353e-012
0.470394
3.25517e-013
0.613778
-4.00568e-013
0.744876
-8.60201e-013
0.859582
1.15685e-012
0.957318
1.58851e-012
1.04022
8.11351e-013
1.10703
7.39853e-013
1.16469
-7.32525e-013
1.21161
-7.08544e-013
1.24231
-8.7419e-013
1.27128
-3.61933e-013
1.29892
-2.65565e-013
1.3137
-6.19504e-014
1.31595
-2.88658e-014
1.31732
-6.70575e-013
1.32788
1.05982e-011
1.33834
-1.11503e-010
1.3389
2.06099e-009
1.33331
-8.56986e-009
1.32348
1.49484e-007
1.3145
-2.01349e-007
1.30823
5.52497e-006
1.31028
2.41986e-005
1.31927
0.00026888
1.32688
0.00110719
1.3319
0.00158962
1.33368
0.00227178
1.33392
0.00275105
1.33107
0.00316764
1.30876
0.00309647
1.22654
0.00302862
1.10662
0.00335573
1.01618
0.00354748
0.949873
0.00381025
0.902759
0.00407032
0.873529
0.00477002
0.853548
0.00529992
0.839833
0.00610262
0.831444
0.00700968
0.825114
0.00818267
0.822077
0.00878372
0.821502
0.0106925
0.820831
0.0118139
0.8203
0.0114372
0.827199
0.0119844
0.828508
0.0124873
0.0134033
3.04398e-007
-3.32179e-012
1.66283e-006
-5.82823e-012
8.39919e-006
1.58984e-013
3.88437e-005
-2.39719e-012
0.000166367
-7.21201e-012
0.000650428
-2.92921e-012
0.0023131
-7.24754e-013
0.00739996
-1.12799e-012
0.0204691
-1.26033e-012
0.0495087
-4.37339e-012
0.104765
-3.74012e-012
0.194799
-3.40972e-012
0.316276
1.8705e-012
0.455195
3.72147e-013
0.593945
-2.14939e-013
0.720807
-5.98188e-013
0.831807
7.96696e-013
0.926385
1.811e-012
1.00661
9.86322e-013
1.07126
4.43201e-013
1.12705
-5.73541e-013
1.17246
-8.48877e-013
1.20217
-7.54063e-013
1.2302
-2.79998e-013
1.25695
-2.80442e-013
1.27125
-5.32907e-015
1.27343
-1.24345e-014
1.27475
-6.24834e-013
1.28497
9.03122e-012
1.29509
-9.66554e-011
1.29564
1.84606e-009
1.29022
-7.60761e-009
1.28072
1.35284e-007
1.27202
-1.69759e-007
1.26595
5.01397e-006
1.26795
2.29838e-005
1.27664
0.000245629
1.284
0.00110762
1.28887
0.00164245
1.29061
0.00234058
1.29085
0.00282693
1.28812
0.00320367
1.26652
0.00322407
1.18697
0.00320258
1.07081
0.00351769
0.983327
0.0036635
0.919191
0.00393558
0.873519
0.00425658
0.84532
0.00491667
0.825827
0.00544739
0.812848
0.00610168
0.804504
0.00769131
0.79892
0.00877937
0.795905
0.00909599
0.795204
0.0106072
0.793362
0.0122134
0.793895
0.0121436
0.800268
0.0123121
0.802725
0.0128503
0.0135224
2.94562e-007
-3.63087e-012
1.6091e-006
-5.52802e-012
8.1278e-006
-1.24789e-012
3.75886e-005
-2.08811e-012
0.000160991
-7.20402e-012
0.000629411
-3.38574e-012
0.00223836
-5.8975e-013
0.00716085
-1.32694e-012
0.0198077
-1.43086e-012
0.047909
-4.20908e-012
0.10138
-3.62288e-012
0.188504
-3.61133e-012
0.306056
2.27818e-012
0.440486
-2.6823e-013
0.574754
-9.72555e-014
0.697516
-2.74447e-013
0.804929
5.0937e-013
0.896451
1.8292e-012
0.974086
1.16129e-012
1.03665
3.58824e-013
1.09064
-6.57252e-013
1.13458
-9.26148e-013
1.16333
-5.93969e-013
1.19045
-3.19522e-013
1.21634
-3.09308e-013
1.23018
5.44009e-014
1.23228
3.9968e-014
1.23356
-4.2566e-013
1.24345
7.66498e-012
1.25325
-8.34468e-011
1.25377
1.65533e-009
1.24853
-6.74574e-009
1.23933
1.22399e-007
1.23092
-1.40168e-007
1.22505
4.53515e-006
1.22698
2.18864e-005
1.23539
0.000223226
1.24251
0.00109837
1.24723
0.00170738
1.24893
0.00241826
1.24917
0.00290459
1.24653
0.00323585
1.22561
0.00333039
1.14867
0.00337004
1.03617
0.00369691
0.951534
0.00379746
0.889494
0.00411896
0.84535
0.00444621
0.818014
0.00498055
0.799043
0.00571255
0.786162
0.00651641
0.77784
0.00807466
0.773239
0.00899645
0.770268
0.00972716
0.769951
0.0107034
0.767043
0.0121567
0.76813
0.0124841
0.774857
0.0127046
0.776981
0.0137038
0.0138923
2.85044e-007
-3.36531e-012
1.55711e-006
-4.86455e-012
7.86517e-006
-2.09166e-012
3.6374e-005
-2.11298e-012
0.000155789
-6.86828e-012
0.000609074
-3.20544e-012
0.00216603
-6.88338e-013
0.00692947
-1.35891e-012
0.0191677
-1.75859e-012
0.0463609
-3.8165e-012
0.0981038
-3.31291e-012
0.182413
-3.55183e-012
0.296167
1.96554e-012
0.426253
-6.1906e-013
0.556182
-4.70735e-014
0.674978
1.28342e-013
0.77892
-7.86038e-014
0.867485
2.03704e-012
0.942612
1.37845e-012
1.00315
3.08642e-013
1.05539
-4.63185e-013
1.09792
-8.60645e-013
1.12574
-6.1906e-013
1.15199
-3.91687e-013
1.17703
-2.75779e-013
1.19043
-9.85878e-014
1.19246
-6.88338e-015
1.19371
-2.81108e-013
1.20327
6.54277e-012
1.21275
-7.17661e-011
1.21326
1.48718e-009
1.20819
-5.98026e-009
1.19929
1.1079e-007
1.19115
-1.12899e-007
1.18546
4.09073e-006
1.18733
2.09046e-005
1.19547
0.000201899
1.20237
0.00108104
1.20692
0.00179108
1.2086
0.00248197
1.20885
0.00297965
1.20628
0.00327884
1.18603
0.00342345
1.11158
0.00352307
1.00271
0.00386329
0.920745
0.00394585
0.860735
0.00432632
0.81798
0.004744
0.791338
0.00518706
0.773367