/*--------------------------------*- C++ -*----------------------------------*\
| =========                 |                                                 |
| \\      /  F ield         | OpenFOAM: The Open Source CFD Toolbox           |
|  \\    /   O peration     | Version:  5.x                                   |
|   \\  /    A nd           | Web:      www.OpenFOAM.org                      |
|    \\/     M anipulation  |                                                 |
\*---------------------------------------------------------------------------*/
/*   Windows 32 and 64 bit porting by blueCAPE: http://www.bluecape.com.pt   *\
|  Based on Windows porting (2.0.x v4) by Symscape: http://www.symscape.com   |
\*---------------------------------------------------------------------------*/
FoamFile
{
    version     2.0;
    format      ascii;
    class       volScalarField;
    location    "0.006";
    object      T;
}
// * * * * * * * * * * * * * * * * * * * * * * * * * * * * * * * * * * * * * //

dimensions      [0 0 0 1 0 0 0];

internalField   nonuniform List<scalar> 
10000
(
348.432
348.432
348.432
348.431
348.43
348.422
348.395
348.302
348.037
347.382
345.992
343.424
339.41
334.032
327.81
321.191
314.657
308.192
302.272
295.783
291.665
284.295
280.613
277.311
271.336
266.339
264.339
263.134
260.512
256.124
253.131
252.48
252.802
253.912
254.333
254.051
252.745
250.839
249.531
248.926
248.787
248.984
250.944
260.471
285.656
314.11
339.295
359.678
374.881
385.698
393.069
398.036
401.129
402.944
403.734
403.873
403.823
402.67
401.279
398.095
348.432
348.432
348.432
348.431
348.43
348.422
348.395
348.302
348.037
347.382
345.992
343.424
339.41
334.032
327.81
321.191
314.657
308.192
302.272
295.783
291.665
284.295
280.613
277.311
271.336
266.339
264.339
263.134
260.512
256.124
253.131
252.48
252.802
253.912
254.333
254.051
252.745
250.839
249.531
248.926
248.787
248.984
250.944
260.471
285.658
314.111
339.295
359.678
374.882
385.696
393.071
398.031
401.113
402.946
403.762
403.861
403.809
402.67
401.279
398.106
348.432
348.432
348.432
348.431
348.43
348.422
348.395
348.302
348.037
347.382
345.992
343.424
339.41
334.032
327.81
321.191
314.657
308.192
302.272
295.783
291.665
284.295
280.613
277.311
271.336
266.339
264.339
263.134
260.512
256.124
253.131
252.48
252.802
253.912
254.333
254.051
252.745
250.839
249.531
248.926
248.788
248.984
250.944
260.471
285.66
314.113
339.295
359.676
374.884
385.698
393.072
398.031
401.11
402.933
403.76
403.882
403.81
402.652
401.28
398.113
348.432
348.432
348.432
348.431
348.43
348.422
348.395
348.302
348.037
347.382
345.992
343.424
339.41
334.032
327.81
321.191
314.657
308.192
302.272
295.783
291.665
284.295
280.613
277.311
271.336
266.339
264.339
263.134
260.512
256.124
253.131
252.48
252.802
253.912
254.333
254.051
252.745
250.839
249.531
248.927
248.788
248.985
250.944
260.472
285.66
314.112
339.296
359.679
374.891
385.704
393.075
398.039
401.115
402.929
403.746
403.9
403.82
402.636
401.277
398.105
348.432
348.432
348.432
348.431
348.43
348.422
348.395
348.302
348.037
347.382
345.992
343.424
339.41
334.032
327.81
321.191
314.657
308.192
302.272
295.783
291.665
284.295
280.613
277.311
271.336
266.339
264.339
263.134
260.512
256.124
253.131
252.48
252.802
253.912
254.333
254.051
252.745
250.838
249.532
248.927
248.789
248.985
250.945
260.472
285.66
314.109
339.296
359.681
374.894
385.701
393.073
398.039
401.117
402.92
403.742
403.915
403.827
402.629
401.274
398.097
348.432
348.432
348.432
348.431
348.43
348.422
348.395
348.302
348.037
347.382
345.992
343.424
339.41
334.032
327.81
321.191
314.657
308.192
302.272
295.783
291.665
284.295
280.613
277.311
271.336
266.339
264.339
263.134
260.512
256.124
253.131
252.48
252.802
253.912
254.333
254.051
252.745
250.838
249.532
248.928
248.789
248.986
250.945
260.472
285.659
314.107
339.297
359.683
374.896
385.698
393.068
398.037
401.108
402.921
403.75
403.914
403.817
402.63
401.283
398.087
348.432
348.432
348.432
348.431
348.43
348.422
348.395
348.302
348.037
347.382
345.992
343.424
339.41
334.032
327.81
321.191
314.657
308.192
302.272
295.783
291.665
284.295
280.613
277.311
271.336
266.339
264.339
263.134
260.512
256.124
253.131
252.48
252.802
253.912
254.333
254.051
252.745
250.839
249.532
248.928
248.79
248.986
250.945
260.472
285.658
314.108
339.3
359.687
374.898
385.695
393.066
398.032
401.1
402.929
403.76
403.895
403.804
402.639
401.287
398.083
348.432
348.432
348.432
348.431
348.43
348.422
348.395
348.302
348.037
347.382
345.992
343.424
339.41
334.032
327.81
321.191
314.657
308.192
302.272
295.783
291.665
284.295
280.613
277.311
271.336
266.339
264.339
263.134
260.512
256.124
253.131
252.48
252.802
253.912
254.333
254.051
252.745
250.839
249.533
248.928
248.79
248.986
250.945
260.472
285.658
314.109
339.301
359.686
374.898
385.693
393.067
398.026
401.099
402.938
403.764
403.873
403.803
402.651
401.278
398.093
348.432
348.432
348.432
348.431
348.43
348.422
348.395
348.302
348.037
347.382
345.992
343.424
339.41
334.032
327.81
321.191
314.657
308.192
302.272
295.783
291.665
284.295
280.613
277.311
271.336
266.339
264.339
263.134
260.512
256.124
253.131
252.48
252.802
253.912
254.333
254.051
252.745
250.839
249.533
248.928
248.79
248.987
250.946
260.472
285.659
314.11
339.3
359.681
374.891
385.689
393.065
398.024
401.094
402.929
403.763
403.875
403.802
402.663
401.287
398.082
348.432
348.432
348.432
348.431
348.43
348.422
348.395
348.302
348.037
347.382
345.992
343.424
339.41
334.032
327.81
321.191
314.657
308.192
302.272
295.783
291.665
284.295
280.613
277.311
271.336
266.339
264.339
263.134
260.512
256.124
253.131
252.48
252.802
253.912
254.333
254.051
252.745
250.839
249.533
248.929
248.79
248.987
250.946
260.472
285.66
314.112
339.3
359.678
374.887
385.69
393.07
398.024
401.095
402.92
403.751
403.892
403.808
402.653
401.3
398.064
348.432
348.432
348.432
348.431
348.43
348.422
348.395
348.302
348.037
347.382
345.992
343.424
339.41
334.032
327.81
321.191
314.657
308.192
302.272
295.783
291.665
284.295
280.613
277.311
271.336
266.339
264.339
263.134
260.512
256.124
253.131
252.48
252.802
253.912
254.333
254.051
252.745
250.839
249.533
248.929
248.79
248.987
250.946
260.472
285.66
314.112
339.3
359.678
374.888
385.692
393.072
398.028
401.099
402.919
403.745
403.895
403.804
402.637
401.31
398.056
348.432
348.432
348.432
348.431
348.43
348.422
348.395
348.302
348.037
347.382
345.992
343.424
339.41
334.032
327.81
321.191
314.657
308.192
302.272
295.783
291.665
284.295
280.613
277.311
271.336
266.339
264.339
263.134
260.512
256.124
253.131
252.48
252.802
253.912
254.333
254.051
252.744
250.839
249.533
248.929
248.79
248.987
250.946
260.471
285.658
314.108
339.298
359.678
374.892
385.692
393.07
398.031
401.097
402.915
403.752
403.898
403.787
402.638
401.319
398.05
348.432
348.432
348.432
348.431
348.43
348.422
348.395
348.302
348.037
347.382
345.992
343.424
339.41
334.032
327.81
321.191
314.657
308.192
302.272
295.783
291.665
284.295
280.613
277.311
271.336
266.339
264.339
263.134
260.512
256.124
253.131
252.48
252.802
253.912
254.333
254.05
252.744
250.839
249.533
248.929
248.79
248.987
250.946
260.47
285.656
314.103
339.294
359.677
374.894
385.691
393.064
398.033
401.095
402.909
403.758
403.912
403.779
402.634
401.334
398.055
348.432
348.432
348.432
348.431
348.43
348.422
348.395
348.302
348.037
347.382
345.992
343.424
339.41
334.032
327.81
321.191
314.657
308.192
302.272
295.783
291.665
284.295
280.613
277.311
271.336
266.339
264.339
263.134
260.512
256.124
253.131
252.48
252.802
253.912
254.333
254.05
252.744
250.84
249.533
248.929
248.791
248.987
250.946
260.469
285.653
314.097
339.29
359.678
374.897
385.693
393.063
398.032
401.09
402.913
403.762
403.915
403.787
402.627
401.335
398.071
348.432
348.432
348.432
348.431
348.43
348.422
348.395
348.302
348.037
347.382
345.992
343.424
339.41
334.032
327.81
321.191
314.657
308.192
302.272
295.783
291.665
284.295
280.613
277.311
271.336
266.339
264.339
263.134
260.512
256.124
253.131
252.48
252.802
253.912
254.333
254.05
252.744
250.84
249.533
248.929
248.791
248.987
250.946
260.468
285.649
314.091
339.285
359.672
374.891
385.694
393.063
398.027
401.088
402.913
403.763
403.906
403.795
402.631
401.319
398.083
348.432
348.432
348.432
348.431
348.43
348.422
348.395
348.302
348.037
347.382
345.992
343.424
339.41
334.032
327.81
321.191
314.657
308.192
302.272
295.783
291.665
284.295
280.613
277.311
271.336
266.339
264.339
263.134
260.512
256.124
253.131
252.48
252.802
253.912
254.333
254.05
252.744
250.84
249.533
248.929
248.791
248.987
250.945
260.466
285.647
314.088
339.28
359.666
374.883
385.692
393.058
398.018
401.095
402.917
403.754
403.899
403.802
402.637
401.307
398.095
348.432
348.432
348.432
348.431
348.43
348.422
348.395
348.302
348.037
347.382
345.992
343.424
339.41
334.032
327.81
321.191
314.657
308.192
302.272
295.783
291.665
284.295
280.613
277.311
271.336
266.339
264.339
263.134
260.512
256.124
253.131
252.48
252.802
253.912
254.333
254.05
252.743
250.84
249.533
248.93
248.791
248.987
250.945
260.465
285.645
314.085
339.277
359.663
374.876
385.687
393.053
398.016
401.098
402.922
403.738
403.908
403.799
402.634
401.311
398.106
348.432
348.432
348.432
348.431
348.43
348.422
348.395
348.302
348.037
347.382
345.992
343.424
339.41
334.032
327.81
321.191
314.657
308.192
302.272
295.783
291.665
284.295
280.613
277.311
271.336
266.339
264.339
263.134
260.512
256.124
253.131
252.48
252.802
253.912
254.333
254.05
252.743
250.84
249.534
248.93
248.791
248.987
250.945
260.463
285.641
314.081
339.274
359.66
374.871
385.68
393.049
398.02
401.104
402.912
403.736
403.915
403.807
402.628
401.325
398.101
348.432
348.432
348.432
348.431
348.43
348.422
348.395
348.302
348.037
347.382
345.992
343.424
339.41
334.032
327.81
321.191
314.657
308.192
302.272
295.783
291.665
284.295
280.613
277.311
271.336
266.339
264.339
263.134
260.512
256.124
253.131
252.48
252.802
253.912
254.333
254.05
252.743
250.839
249.534
248.93
248.791
248.987
250.944
260.462
285.639
314.078
339.271
359.654
374.868
385.677
393.049
398.03
401.1
402.9
403.736
403.918
403.818
402.624
401.337
398.091
348.432
348.432
348.432
348.431
348.43
348.422
348.395
348.302
348.037
347.382
345.992
343.424
339.41
334.032
327.81
321.191
314.657
308.192
302.272
295.783
291.665
284.295
280.613
277.311
271.336
266.339
264.339
263.134
260.512
256.124
253.131
252.48
252.802
253.912
254.333
254.05
252.743
250.839
249.535
248.93
248.791
248.987
250.944
260.461
285.638
314.075
339.268
359.653
374.873
385.679
393.046
398.029
401.097
402.899
403.741
403.919
403.818
402.617
401.347
398.098
348.432
348.432
348.432
348.431
348.43
348.422
348.395
348.302
348.037
347.382
345.992
343.424
339.41
334.032
327.81
321.191
314.657
308.192
302.272
295.783
291.665
284.295
280.613
277.311
271.336
266.339
264.339
263.134
260.512
256.124
253.131
252.48
252.802
253.912
254.333
254.05
252.742
250.839
249.535
248.93
248.791
248.987
250.944
260.46
285.638
314.073
339.264
359.652
374.876
385.681
393.046
398.025
401.093
402.902
403.746
403.924
403.813
402.617
401.347
398.111
348.432
348.432
348.432
348.431
348.43
348.422
348.395
348.302
348.037
347.382
345.992
343.424
339.41
334.032
327.81
321.191
314.657
308.192
302.272
295.783
291.665
284.295
280.613
277.311
271.336
266.339
264.339
263.134
260.512
256.124
253.131
252.48
252.802
253.912
254.333
254.05
252.742
250.839
249.535
248.93
248.791
248.987
250.944
260.46
285.638
314.073
339.264
359.649
374.873
385.678
393.05
398.022
401.083
402.903
403.75
403.928
403.81
402.618
401.347
398.117
348.432
348.432
348.432
348.431
348.43
348.422
348.395
348.302
348.037
347.382
345.992
343.424
339.41
334.032
327.81
321.191
314.657
308.192
302.272
295.783
291.665
284.295
280.613
277.311
271.336
266.339
264.339
263.134
260.512
256.124
253.131
252.48
252.802
253.912
254.333
254.05
252.742
250.839
249.536
248.93
248.791
248.987
250.944
260.459
285.637
314.073
339.263
359.643
374.869
385.676
393.05
398.021
401.076
402.902
403.75
403.932
403.81
402.619
401.346
398.118
348.432
348.432
348.432
348.431
348.43
348.422
348.395
348.302
348.037
347.382
345.992
343.424
339.41
334.032
327.81
321.191
314.657
308.192
302.272
295.783
291.665
284.295
280.613
277.311
271.336
266.339
264.339
263.134
260.512
256.124
253.131
252.48
252.802
253.912
254.333
254.05
252.742
250.838
249.536
248.93
248.791
248.987
250.944
260.459
285.635
314.073
339.264
359.641
374.866
385.672
393.053
398.023
401.071
402.904
403.752
403.935
403.805
402.617
401.334
398.119
348.432
348.432
348.432
348.431
348.43
348.422
348.395
348.302
348.037
347.382
345.992
343.424
339.41
334.032
327.81
321.191
314.657
308.192
302.272
295.783
291.665
284.295
280.613
277.311
271.336
266.339
264.339
263.134
260.512
256.124
253.131
252.48
252.802
253.912
254.333
254.05
252.742
250.838
249.536
248.93
248.791
248.987
250.944
260.458
285.633
314.072
339.266
359.641
374.863
385.663
393.056
398.026
401.07
402.908
403.749
403.931
403.798
402.615
401.32
398.123
348.432
348.432
348.432
348.431
348.43
348.422
348.395
348.302
348.037
347.382
345.992
343.424
339.41
334.032
327.81
321.191
314.657
308.192
302.272
295.783
291.665
284.295
280.613
277.311
271.336
266.339
264.339
263.134
260.512
256.124
253.131
252.48
252.802
253.912
254.333
254.05
252.741
250.838
249.537
248.93
248.791
248.988
250.944
260.458
285.631
314.07
339.265
359.641
374.861
385.661
393.053
398.03
401.073
402.907
403.735
403.922
403.801
402.617
401.309
398.13
348.432
348.432
348.432
348.431
348.43
348.422
348.395
348.302
348.037
347.382
345.992
343.424
339.41
334.032
327.81
321.191
314.657
308.192
302.272
295.783
291.665
284.295
280.613
277.311
271.336
266.339
264.339
263.134
260.512
256.124
253.131
252.48
252.802
253.912
254.333
254.05
252.741
250.838
249.537
248.931
248.792
248.988
250.944
260.458
285.63
314.069
339.261
359.639
374.856
385.663
393.048
398.026
401.084
402.899
403.717
403.915
403.812
402.623
401.314
398.129
348.432
348.432
348.432
348.431
348.43
348.422
348.395
348.302
348.037
347.382
345.992
343.424
339.41
334.032
327.81
321.191
314.657
308.192
302.272
295.783
291.665
284.295
280.613
277.311
271.336
266.339
264.339
263.134
260.512
256.124
253.131
252.48
252.802
253.912
254.333
254.05
252.741
250.837
249.537
248.931
248.792
248.988
250.944
260.457
285.63
314.068
339.257
359.635
374.853
385.662
393.042
398.023
401.095
402.888
403.71
403.914
403.819
402.622
401.33
398.118
348.432
348.432
348.432
348.431
348.43
348.422
348.395
348.302
348.037
347.382
345.992
343.424
339.41
334.032
327.81
321.191
314.657
308.192
302.272
295.783
291.665
284.295
280.613
277.311
271.336
266.339
264.339
263.134
260.512
256.124
253.131
252.48
252.802
253.912
254.333
254.05
252.741
250.837
249.537
248.932
248.792
248.989
250.944
260.457
285.629
314.067
339.255
359.634
374.853
385.662
393.042
398.025
401.089
402.882
403.717
403.912
403.813
402.611
401.339
398.111
348.432
348.432
348.432
348.431
348.43
348.422
348.395
348.302
348.037
347.382
345.992
343.424
339.41
334.032
327.81
321.191
314.657
308.192
302.272
295.783
291.665
284.295
280.613
277.311
271.336
266.339
264.339
263.134
260.512
256.124
253.131
252.48
252.802
253.912
254.333
254.05
252.741
250.837
249.537
248.932
248.793
248.989
250.944
260.456
285.629
314.067
339.253
359.631
374.851
385.659
393.046
398.028
401.075
402.881
403.725
403.913
403.8
402.596
401.336
398.111
348.432
348.432
348.432
348.431
348.43
348.422
348.395
348.302
348.037
347.382
345.992
343.424
339.41
334.032
327.81
321.191
314.657
308.192
302.272
295.783
291.665
284.295
280.613
277.311
271.336
266.339
264.339
263.134
260.512
256.124
253.131
252.48
252.802
253.912
254.333
254.05
252.741
250.837
249.537
248.932
248.793
248.989
250.944
260.456
285.627
314.066
339.254
359.633
374.85
385.656
393.047
398.026
401.064
402.88
403.727
403.915
403.786
402.582
401.339
398.11
348.432
348.432
348.432
348.431
348.43
348.422
348.395
348.302
348.037
347.382
345.992
343.424
339.41
334.032
327.81
321.191
314.657
308.192
302.272
295.783
291.665
284.295
280.613
277.311
271.336
266.339
264.339
263.134
260.512
256.124
253.131
252.48
252.802
253.912
254.333
254.05
252.741
250.836
249.537
248.933
248.793
248.989
250.944
260.455
285.625
314.065
339.256
359.637
374.852
385.653
393.043
398.023
401.058
402.876
403.726
403.917
403.778
402.582
401.338
398.113
348.432
348.432
348.432
348.431
348.43
348.422
348.395
348.302
348.037
347.382
345.992
343.424
339.41
334.032
327.81
321.191
314.657
308.192
302.272
295.783
291.665
284.295
280.613
277.311
271.336
266.339
264.339
263.134
260.512
256.124
253.131
252.48
252.802
253.912
254.333
254.05
252.74
250.836
249.537
248.933
248.794
248.989
250.943
260.455
285.624
314.063
339.256
359.641
374.855
385.654
393.044
398.023
401.059
402.869
403.724
403.917
403.774
402.592
401.333
398.119
348.432
348.432
348.432
348.431
348.43
348.422
348.395
348.302
348.037
347.382
345.992
343.424
339.41
334.032
327.81
321.191
314.657
308.192
302.272
295.783
291.665
284.295
280.613
277.311
271.336
266.339
264.339
263.134
260.512
256.124
253.131
252.48
252.802
253.912
254.333
254.05
252.74
250.836
249.536
248.933
248.794
248.989
250.943
260.454
285.623
314.063
339.254
359.64
374.857
385.655
393.046
398.023
401.06
402.864
403.723
403.916
403.773
402.6
401.321
398.13
348.432
348.432
348.432
348.431
348.43
348.422
348.395
348.302
348.037
347.382
345.992
343.424
339.41
334.032
327.81
321.191
314.657
308.192
302.272
295.783
291.665
284.295
280.613
277.311
271.336
266.339
264.339
263.134
260.512
256.124
253.131
252.48
252.802
253.912
254.333
254.05
252.74
250.835
249.536
248.933
248.793
248.989
250.943
260.454
285.623
314.062
339.251
359.637
374.854
385.655
393.045
398.025
401.059
402.867
403.724
403.918
403.775
402.589
401.309
398.135
348.432
348.432
348.432
348.431
348.43
348.422
348.395
348.302
348.037
347.382
345.992
343.424
339.41
334.032
327.81
321.191
314.657
308.192
302.272
295.783
291.665
284.295
280.613
277.311
271.336
266.339
264.339
263.134
260.512
256.124
253.131
252.48
252.802
253.912
254.333
254.05
252.74
250.835
249.536
248.933
248.793
248.989
250.943
260.453
285.623
314.062
339.248
359.633
374.851
385.656
393.042
398.025
401.055
402.872
403.726
403.923
403.776
402.567
401.299
398.132
348.432
348.432
348.432
348.431
348.43
348.422
348.395
348.302
348.037
347.382
345.992
343.424
339.41
334.032
327.81
321.191
314.657
308.192
302.272
295.783
291.665
284.295
280.613
277.311
271.336
266.339
264.339
263.134
260.512
256.124
253.131
252.48
252.802
253.912
254.333
254.05
252.74
250.835
249.536
248.933
248.793
248.989
250.943
260.453
285.622
314.061
339.244
359.63
374.85
385.659
393.04
398.024
401.055
402.874
403.727
403.925
403.781
402.551
401.285
398.127
348.432
348.432
348.432
348.431
348.43
348.422
348.395
348.302
348.037
347.382
345.992
343.424
339.41
334.032
327.81
321.191
314.657
308.192
302.272
295.783
291.665
284.295
280.613
277.311
271.336
266.339
264.339
263.134
260.512
256.124
253.131
252.48
252.802
253.912
254.333
254.05
252.74
250.835
249.536
248.932
248.793
248.989
250.943
260.453
285.622
314.06
339.241
359.625
374.847
385.658
393.039
398.023
401.058
402.875
403.721
403.922
403.799
402.543
401.271
398.12
348.432
348.432
348.432
348.431
348.43
348.422
348.395
348.302
348.037
347.382
345.992
343.424
339.41
334.032
327.81
321.191
314.657
308.192
302.272
295.783
291.665
284.295
280.613
277.311
271.336
266.339
264.339
263.134
260.512
256.124
253.131
252.48
252.802
253.912
254.333
254.05
252.74
250.835
249.536
248.932
248.793
248.989
250.943
260.453
285.621
314.059
339.238
359.62
374.843
385.656
393.039
398.021
401.062
402.875
403.71
403.915
403.824
402.539
401.261
398.114
348.432
348.432
348.432
348.431
348.43
348.422
348.395
348.302
348.037
347.382
345.992
343.424
339.41
334.032
327.81
321.191
314.657
308.192
302.272
295.783
291.665
284.295
280.613
277.311
271.336
266.339
264.339
263.134
260.512
256.124
253.131
252.48
252.802
253.912
254.333
254.05
252.74
250.834
249.536
248.932
248.792
248.988
250.943
260.453
285.621
314.057
339.236
359.617
374.841
385.655
393.039
398.019
401.068
402.873
403.701
403.908
403.839
402.54
401.258
398.112
348.432
348.432
348.432
348.431
348.43
348.422
348.395
348.302
348.037
347.382
345.992
343.424
339.41
334.032
327.81
321.191
314.657
308.192
302.272
295.783
291.665
284.295
280.613
277.311
271.336
266.339
264.339
263.134
260.512
256.124
253.131
252.48
252.802
253.912
254.333
254.05
252.74
250.834
249.535
248.932
248.792
248.988
250.943
260.453
285.62
314.056
339.234
359.616
374.839
385.656
393.04
398.015
401.072
402.867
403.698
403.902
403.838
402.549
401.261
398.115
348.432
348.432
348.432
348.431
348.43
348.422
348.395
348.302
348.037
347.382
345.992
343.424
339.41
334.032
327.81
321.191
314.657
308.192
302.272
295.783
291.665
284.295
280.613
277.311
271.336
266.339
264.339
263.134
260.512
256.124
253.131
252.48
252.802
253.912
254.333
254.05
252.74
250.834
249.535
248.932
248.792
248.988
250.943
260.453
285.619
314.055
339.233
359.614
374.839
385.657
393.041
398.011
401.076
402.863
403.696
403.897
403.836
402.56
401.257
398.123
348.432
348.432
348.432
348.431
348.43
348.422
348.395
348.302
348.037
347.382
345.992
343.424
339.41
334.032
327.81
321.191
314.657
308.192
302.272
295.783
291.665
284.295
280.613
277.311
271.336
266.339
264.339
263.134
260.512
256.124
253.131
252.48
252.802
253.912
254.333
254.05
252.74
250.834
249.535
248.931
248.792
248.988
250.943
260.452
285.618
314.054
339.232
359.613
374.839
385.657
393.041
398.009
401.078
402.86
403.694
403.895
403.834
402.575
401.253
398.131
348.432
348.432
348.432
348.431
348.43
348.422
348.395
348.302
348.037
347.382
345.992
343.424
339.41
334.032
327.81
321.191
314.657
308.192
302.272
295.783
291.665
284.295
280.613
277.311
271.336
266.339
264.339
263.134
260.512
256.124
253.131
252.48
252.802
253.912
254.333
254.05
252.74
250.833
249.535
248.931
248.792
248.988
250.942
260.452
285.618
314.055
339.231
359.613
374.838
385.657
393.04
398.008
401.079
402.859
403.692
403.894
403.835
402.583
401.258
398.134
348.432
348.432
348.432
348.431
348.43
348.422
348.395
348.302
348.037
347.382
345.992
343.424
339.41
334.032
327.81
321.191
314.657
308.192
302.272
295.783
291.665
284.295
280.613
277.311
271.336
266.339
264.339
263.134
260.512
256.124
253.131
252.48
252.802
253.912
254.333
254.05
252.74
250.833
249.535
248.931
248.792
248.988
250.942
260.452
285.618
314.056
339.231
359.614
374.837
385.655
393.039
398.008
401.08
402.861
403.69
403.892
403.836
402.588
401.266
398.129
348.432
348.432
348.432
348.431
348.43
348.422
348.395
348.302
348.037
347.382
345.992
343.424
339.41
334.032
327.81
321.191
314.657
308.192
302.272
295.783
291.665
284.295
280.613
277.311
271.336
266.339
264.339
263.134
260.512
256.124
253.131
252.48
252.802
253.912
254.333
254.05
252.74
250.833
249.534
248.931
248.791
248.988
250.942
260.452
285.618
314.057
339.233
359.615
374.836
385.654
393.039
398.01
401.081
402.862
403.691
403.891
403.836
402.592
401.269
398.116
348.432
348.432
348.432
348.431
348.43
348.422
348.395
348.302
348.037
347.382
345.992
343.424
339.41
334.032
327.81
321.191
314.657
308.192
302.272
295.783
291.665
284.295
280.613
277.311
271.336
266.339
264.339
263.134
260.512
256.124
253.131
252.48
252.802
253.912
254.333
254.05
252.74
250.833
249.534
248.931
248.791
248.988
250.942
260.452
285.617
314.057
339.234
359.616
374.835
385.653
393.039
398.011
401.08
402.864
403.694
403.888
403.833
402.6
401.268
398.1
348.432
348.432
348.432
348.431
348.43
348.422
348.395
348.302
348.037
347.382
345.992
343.424
339.41
334.032
327.81
321.191
314.657
308.192
302.272
295.783
291.665
284.295
280.613
277.311
271.336
266.339
264.339
263.134
260.512
256.124
253.131
252.48
252.802
253.912
254.333
254.05
252.74
250.833
249.534
248.93
248.791
248.987
250.942
260.452
285.616
314.057
339.235
359.617
374.834
385.652
393.039
398.012
401.078
402.865
403.698
403.885
403.83
402.612
401.267
398.081
348.432
348.432
348.432
348.431
348.43
348.422
348.395
348.302
348.037
347.382
345.992
343.424
339.41
334.032
327.81
321.191
314.657
308.192
302.272
295.783
291.665
284.295
280.613
277.311
271.336
266.339
264.339
263.134
260.512
256.124
253.131
252.48
252.802
253.912
254.333
254.05
252.74
250.833
249.534
248.93
248.791
248.987
250.942
260.452
285.615
314.057
339.235
359.617
374.834
385.651
393.04
398.012
401.075
402.867
403.702
403.882
403.826
402.625
401.267
398.062
348.432
348.432
348.432
348.431
348.43
348.422
348.395
348.302
348.037
347.382
345.992
343.424
339.41
334.032
327.81
321.191
314.657
308.192
302.272
295.783
291.665
284.295
280.613
277.311
271.336
266.339
264.339
263.134
260.512
256.124
253.131
252.48
252.802
253.912
254.333
254.05
252.74
250.833
249.534
248.93
248.791
248.987
250.942
260.451
285.614
314.057
339.236
359.617
374.834
385.649
393.04
398.012
401.073
402.869
403.706
403.881
403.824
402.629
401.263
398.048
348.432
348.432
348.432
348.431
348.43
348.422
348.395
348.302
348.037
347.382
345.992
343.424
339.41
334.032
327.81
321.191
314.657
308.192
302.272
295.783
291.665
284.295
280.613
277.311
271.336
266.339
264.339
263.134
260.512
256.124
253.131
252.48
252.802
253.912
254.333
254.05
252.74
250.832
249.533
248.929
248.79
248.986
250.941
260.451
285.612
314.057
339.238
359.617
374.835
385.641
393.045
398.009
401.076
402.871
403.712
403.89
403.779
402.972
400.795
398.371
348.432
348.432
348.432
348.431
348.43
348.422
348.395
348.302
348.037
347.382
345.992
343.424
339.41
334.032
327.81
321.191
314.657
308.192
302.272
295.783
291.665
284.295
280.613
277.311
271.336
266.339
264.339
263.134
260.512
256.124
253.131
252.48
252.802
253.912
254.333
254.05
252.739
250.832
249.532
248.928
248.788
248.985
250.94
260.448
285.609
314.055
339.235
359.613
374.833
385.638
393.047
397.998
401.092
402.881
403.698
403.858
403.802
402.98
400.742
398.398
348.432
348.432
348.432
348.431
348.43
348.422
348.395
348.302
348.037
347.382
345.992
343.424
339.41
334.032
327.81
321.191
314.657
308.192
302.272
295.783
291.665
284.295
280.613
277.311
271.336
266.339
264.339
263.134
260.512
256.124
253.131
252.48
252.802
253.912
254.333
254.05
252.739
250.831
249.53
248.926
248.786
248.983
250.938
260.444
285.602
314.047
339.227
359.608
374.83
385.635
393.046
397.989
401.085
402.878
403.691
403.861
403.775
402.967
400.771
398.383
348.432
348.432
348.432
348.431
348.43
348.422
348.395
348.302
348.037
347.382
345.992
343.424
339.41
334.032
327.81
321.191
314.657
308.192
302.272
295.783
291.665
284.295
280.613
277.311
271.336
266.339
264.339
263.134
260.512
256.124
253.131
252.48
252.802
253.912
254.333
254.05
252.739
250.831
249.529
248.924
248.784
248.981
250.935
260.439
285.595
314.039
339.221
359.601
374.827
385.635
393.053
397.978
401.084
402.876
403.696
403.859
403.749
402.928
400.803
398.408
348.432
348.432
348.432
348.431
348.43
348.422
348.395
348.302
348.037
347.382
345.992
343.424
339.41
334.032
327.81
321.191
314.657
308.192
302.272
295.783
291.665
284.295
280.613
277.311
271.336
266.339
264.339
263.134
260.512
256.124
253.131
252.48
252.802
253.912
254.333
254.05
252.739
250.831
249.528
248.92
248.781
248.977
250.932
260.435
285.59
314.037
339.221
359.597
374.83
385.633
393.053
397.974
401.083
402.876
403.695
403.851
403.735
402.877
400.836
398.442
348.432
348.432
348.432
348.431
348.43
348.422
348.395
348.302
348.037
347.382
345.992
343.424
339.41
334.032
327.81
321.191
314.657
308.192
302.272
295.783
291.665
284.295
280.613
277.311
271.336
266.339
264.339
263.134
260.512
256.124
253.131
252.48
252.802
253.912
254.333
254.05
252.739
250.831
249.527
248.917
248.777
248.974
250.929
260.431
285.582
314.03
339.212
359.592
374.822
385.634
393.052
397.966
401.085
402.861
403.678
403.878
403.721
402.839
400.848
398.465
348.432
348.432
348.432
348.431
348.43
348.422
348.395
348.302
348.037
347.382
345.992
343.424
339.41
334.032
327.81
321.191
314.657
308.192
302.272
295.783
291.665
284.295
280.613
277.311
271.336
266.339
264.339
263.134
260.512
256.124
253.131
252.48
252.802
253.912
254.333
254.05
252.739
250.83
249.526
248.913
248.773
248.97
250.924
260.425
285.571
314.02
339.201
359.587
374.819
385.635
393.052
397.964
401.078
402.846
403.664
403.89
403.731
402.839
400.841
398.473
348.432
348.432
348.432
348.431
348.43
348.422
348.395
348.302
348.037
347.382
345.992
343.424
339.41
334.032
327.81
321.191
314.657
308.192
302.272
295.783
291.665
284.295
280.613
277.311
271.336
266.339
264.339
263.134
260.512
256.124
253.131
252.48
252.802
253.912
254.333
254.05
252.739
250.83
249.525
248.909
248.769
248.966
250.92
260.418
285.56
314.007
339.188
359.576
374.802
385.618
393.042
397.95
401.07
402.836
403.663
403.888
403.729
402.844
400.844
398.476
348.432
348.432
348.432
348.431
348.43
348.422
348.395
348.302
348.037
347.382
345.992
343.424
339.41
334.032
327.81
321.191
314.657
308.192
302.272
295.783
291.665
284.295
280.613
277.311
271.336
266.339
264.339
263.134
260.512
256.124
253.131
252.48
252.802
253.912
254.333
254.05
252.739
250.83
249.525
248.905
248.765
248.962
250.915
260.41
285.552
313.997
339.175
359.565
374.786
385.598
393.024
397.942
401.062
402.828
403.659
403.879
403.726
402.851
400.833
398.484
348.432
348.432
348.432
348.431
348.43
348.422
348.395
348.302
348.037
347.382
345.992
343.424
339.41
334.032
327.81
321.191
314.657
308.192
302.272
295.783
291.665
284.295
280.613
277.311
271.336
266.339
264.339
263.134
260.512
256.124
253.131
252.48
252.802
253.912
254.333
254.05
252.739
250.83
249.524
248.902
248.762
248.958
250.911
260.404
285.54
313.983
339.159
359.55
374.773
385.58
393.015
397.929
401.046
402.814
403.654
403.86
403.71
402.861
400.813
398.477
348.432
348.432
348.432
348.431
348.43
348.422
348.395
348.302
348.037
347.382
345.992
343.424
339.41
334.032
327.81
321.191
314.657
308.192
302.272
295.783
291.665
284.295
280.613
277.311
271.336
266.339
264.339
263.134
260.512
256.124
253.131
252.48
252.802
253.912
254.333
254.05
252.739
250.83
249.524
248.9
248.759
248.955
250.908
260.398
285.53
313.973
339.144
359.535
374.758
385.568
393.001
397.908
401.029
402.795
403.644
403.835
403.691
402.86
400.775
398.448
348.432
348.432
348.432
348.431
348.43
348.422
348.395
348.302
348.037
347.382
345.992