/*--------------------------------*- C++ -*----------------------------------*\
| =========                 |                                                 |
| \\      /  F ield         | OpenFOAM: The Open Source CFD Toolbox           |
|  \\    /   O peration     | Version:  5.x                                   |
|   \\  /    A nd           | Web:      www.OpenFOAM.org                      |
|    \\/     M anipulation  |                                                 |
\*---------------------------------------------------------------------------*/
/*   Windows 32 and 64 bit porting by blueCAPE: http://www.bluecape.com.pt   *\
|  Based on Windows porting (2.0.x v4) by Symscape: http://www.symscape.com   |
\*---------------------------------------------------------------------------*/
FoamFile
{
    version     2.0;
    format      ascii;
    class       volVectorField;
    location    "0.006";
    object      U;
}
// * * * * * * * * * * * * * * * * * * * * * * * * * * * * * * * * * * * * * //

dimensions      [0 1 -1 0 0 0 0];

internalField   nonuniform List<vector> 
10000
(
(7.88759e-006 1.07561e-012 0)
(5.25218e-005 1.77202e-012 0)
(0.000277191 5.37924e-013 0)
(0.00138524 -1.45384e-012 0)
(0.0062845 -1.6222e-012 0)
(0.0264825 -2.39877e-012 0)
(0.101083 2.50959e-012 0)
(0.347209 1.76556e-012 0)
(1.04433 1.51224e-012 0)
(2.76268 -7.77595e-013 0)
(6.43189 -1.76265e-012 0)
(13.2046 1.38201e-012 0)
(23.9034 2.4372e-013 0)
(38.2984 -1.62117e-012 0)
(55.3955 -2.54451e-012 0)
(73.6183 -4.2294e-012 0)
(92.1623 -8.00434e-013 0)
(110.342 1.01961e-011 0)
(128.177 -4.71782e-012 0)
(145.25 -1.4975e-012 0)
(161.803 3.8303e-012 0)
(177.652 9.64492e-013 0)
(192.553 3.62887e-012 0)
(206.785 8.63687e-013 0)
(220.009 5.8106e-013 0)
(232.235 -7.72245e-013 0)
(243.53 1.9231e-012 0)
(253.575 1.26588e-014 0)
(262.349 4.18494e-011 0)
(269.964 -4.03047e-010 0)
(276.254 6.45105e-009 0)
(281.397 -2.75468e-008 0)
(285.471 4.07482e-007 0)
(288.37 -4.66473e-007 0)
(290.071 1.20534e-005 0)
(290.988 6.74605e-005 0)
(291.736 0.000357293 0)
(292.258 0.000596689 0)
(292.515 0.00187473 0)
(292.737 0.0010851 0)
(293.013 0.00120553 0)
(293.31 0.00145432 0)
(293.576 0.00166982 0)
(293.727 0.00175205 0)
(293.696 0.00217963 0)
(293.517 0.00131162 0)
(293.251 0.00248731 0)
(292.934 0.00338319 0)
(292.624 0.00654754 0)
(292.374 0.0105307 0)
(292.207 0.00881036 0)
(292.115 0.00748535 0)
(292.074 0.00413818 0)
(292.056 -0.00124928 0)
(292.025 -0.000843655 0)
(291.967 0.0102725 0)
(291.902 0.0108101 0)
(291.83 0.0125414 0)
(291.729 0.0194241 0)
(291.611 -0.00242966 0)
(7.88759e-006 3.602e-013 0)
(5.25218e-005 -4.37004e-012 0)
(0.000277191 5.97937e-012 0)
(0.00138524 -4.57971e-012 0)
(0.0062845 -4.76902e-013 0)
(0.0264825 -3.83967e-012 0)
(0.101083 -1.04392e-012 0)
(0.347209 1.59765e-012 0)
(1.04433 1.20692e-012 0)
(2.76268 -1.92881e-012 0)
(6.43189 2.5113e-012 0)
(13.2046 2.08481e-012 0)
(23.9034 -1.16661e-013 0)
(38.2984 -5.54966e-012 0)
(55.3955 -1.44547e-012 0)
(73.6183 -4.61291e-013 0)
(92.1623 -2.28624e-012 0)
(110.342 -1.28535e-012 0)
(128.177 3.46699e-012 0)
(145.25 5.14375e-012 0)
(161.803 -6.07086e-013 0)
(177.652 2.24184e-012 0)
(192.553 -6.22133e-013 0)
(206.785 1.34976e-012 0)
(220.009 -3.4616e-012 0)
(232.235 -3.56426e-012 0)
(243.53 -3.00543e-012 0)
(253.575 -9.53984e-012 0)
(262.349 1.17772e-010 0)
(269.964 -1.17083e-009 0)
(276.254 1.8768e-008 0)
(281.397 -8.00771e-008 0)
(285.471 1.18934e-006 0)
(288.37 -1.37987e-006 0)
(290.071 3.53569e-005 0)
(290.988 0.000194882 0)
(291.736 0.00106708 0)
(292.258 0.00170703 0)
(292.515 0.00544101 0)
(292.737 0.00359093 0)
(293.013 0.00374723 0)
(293.31 0.00466931 0)
(293.576 0.00502269 0)
(293.727 0.00544896 0)
(293.696 0.00704626 0)
(293.517 0.00705629 0)
(293.251 0.00938731 0)
(292.934 0.0123612 0)
(292.625 0.0168315 0)
(292.375 0.0246303 0)
(292.207 0.0213503 0)
(292.114 0.021825 0)
(292.073 0.0224188 0)
(292.055 0.00636229 0)
(292.027 -0.00826522 0)
(291.969 0.0189619 0)
(291.903 0.0335338 0)
(291.832 0.0290251 0)
(291.726 0.0491003 0)
(291.605 0.0241868 0)
(7.88759e-006 3.98308e-012 0)
(5.25218e-005 -1.39007e-012 0)
(0.000277191 8.0765e-012 0)
(0.00138524 -4.29618e-012 0)
(0.0062845 -3.01459e-012 0)
(0.0264825 -5.4173e-012 0)
(0.101083 2.1808e-012 0)
(0.347209 9.26453e-013 0)
(1.04433 1.67684e-012 0)
(2.76268 -5.596e-012 0)
(6.43189 -8.46041e-013 0)
(13.2046 2.51117e-012 0)
(23.9034 -5.55294e-012 0)
(38.2984 -2.18965e-012 0)
(55.3955 4.37166e-013 0)
(73.6183 -3.76907e-012 0)
(92.1623 -2.15205e-014 0)
(110.342 1.38605e-011 0)
(128.177 -1.30947e-012 0)
(145.25 2.60321e-012 0)
(161.803 -2.00596e-012 0)
(177.652 8.18121e-013 0)
(192.553 9.62002e-013 0)
(206.785 1.31115e-012 0)
(220.009 -1.01533e-012 0)
(232.235 -3.08938e-012 0)
(243.53 -1.70374e-012 0)
(253.575 -1.24037e-011 0)
(262.349 1.8642e-010 0)
(269.964 -1.84422e-009 0)
(276.254 2.96632e-008 0)
(281.397 -1.2651e-007 0)
(285.471 1.89076e-006 0)
(288.37 -2.25004e-006 0)
(290.071 5.67366e-005 0)
(290.988 0.00030469 0)
(291.736 0.00176244 0)
(292.258 0.00273187 0)
(292.515 0.00850147 0)
(292.737 0.00640629 0)
(293.013 0.00666045 0)
(293.31 0.00809131 0)
(293.576 0.00861199 0)
(293.727 0.00963302 0)
(293.696 0.0113378 0)
(293.518 0.0111297 0)
(293.252 0.0134615 0)
(292.935 0.0187879 0)
(292.625 0.0199712 0)
(292.375 0.026561 0)
(292.207 0.0304744 0)
(292.115 0.0305894 0)
(292.072 0.0451644 0)
(292.051 0.0375591 0)
(292.027 0.0129526 0)
(291.974 0.0338171 0)
(291.904 0.0591903 0)
(291.833 0.0448323 0)
(291.727 0.0533954 0)
(291.602 0.0632387 0)
(7.88759e-006 2.98077e-012 0)
(5.25218e-005 -5.18594e-012 0)
(0.000277191 9.85739e-012 0)
(0.00138524 -1.38941e-011 0)
(0.0062845 -1.8094e-012 0)
(0.0264825 -1.94844e-012 0)
(0.101083 -7.82175e-013 0)
(0.347209 8.15262e-013 0)
(1.04433 -3.6394e-013 0)
(2.76268 -3.15227e-012 0)
(6.43189 -2.65648e-012 0)
(13.2046 -9.86838e-013 0)
(23.9034 -3.58502e-012 0)
(38.2984 -3.33944e-012 0)
(55.3955 5.25481e-013 0)
(73.6183 3.7481e-013 0)
(92.1623 -3.77356e-012 0)
(110.342 4.11083e-012 0)
(128.177 5.51732e-012 0)
(145.25 6.47364e-012 0)
(161.803 1.30941e-012 0)
(177.652 -1.20012e-012 0)
(192.553 -1.86517e-012 0)
(206.785 -1.07448e-012 0)
(220.009 -1.01923e-012 0)
(232.235 -2.77303e-012 0)
(243.53 -3.75248e-012 0)
(253.575 -1.54954e-011 0)
(262.349 2.40655e-010 0)
(269.964 -2.39961e-009 0)
(276.254 3.87182e-008 0)
(281.397 -1.65248e-007 0)
(285.471 2.48765e-006 0)
(288.37 -3.05938e-006 0)
(290.071 7.55868e-005 0)
(290.988 0.000393058 0)
(291.736 0.00242977 0)
(292.259 0.0037239 0)
(292.516 0.0108148 0)
(292.737 0.00909658 0)
(293.013 0.0096475 0)
(293.311 0.0111583 0)
(293.576 0.0124265 0)
(293.727 0.0139521 0)
(293.696 0.0150483 0)
(293.517 0.0130552 0)
(293.252 0.0147369 0)
(292.935 0.022082 0)
(292.626 0.0251758 0)
(292.376 0.0348536 0)
(292.207 0.0419146 0)
(292.116 0.038436 0)
(292.074 0.0489148 0)
(292.05 0.0570336 0)
(292.026 0.054047 0)
(291.977 0.0575684 0)
(291.905 0.0770285 0)
(291.831 0.0807716 0)
(291.729 0.0680921 0)
(291.603 0.0974332 0)
(7.88759e-006 5.84555e-012 0)
(5.25218e-005 -6.48852e-012 0)
(0.000277191 1.06052e-011 0)
(0.00138524 -1.28341e-011 0)
(0.0062845 -3.11668e-012 0)
(0.0264825 -4.92104e-012 0)
(0.101083 5.07086e-013 0)
(0.347209 1.82338e-012 0)
(1.04433 -3.00216e-013 0)
(2.76268 -7.15266e-012 0)
(6.43189 -2.82262e-012 0)
(13.2046 -1.09477e-012 0)
(23.9034 -4.59138e-012 0)
(38.2984 2.48863e-013 0)
(55.3955 4.74702e-012 0)
(73.6183 -7.01972e-012 0)
(92.1623 -2.46731e-012 0)
(110.342 9.03864e-012 0)
(128.177 2.73767e-012 0)
(145.25 7.62819e-012 0)
(161.803 1.30386e-012 0)
(177.652 -2.63235e-012 0)
(192.553 -2.33103e-012 0)
(206.785 -9.65348e-013 0)
(220.009 -1.9647e-012 0)
(232.235 -9.23132e-013 0)
(243.53 -2.75696e-012 0)
(253.575 -1.74648e-011 0)
(262.349 2.85696e-010 0)
(269.964 -2.82087e-009 0)
(276.254 4.57327e-008 0)
(281.397 -1.95442e-007 0)
(285.471 2.96594e-006 0)
(288.37 -3.78143e-006 0)
(290.071 9.14693e-005 0)
(290.988 0.000458945 0)
(291.737 0.00305545 0)
(292.259 0.00470313 0)
(292.516 0.0122198 0)
(292.737 0.0118644 0)
(293.013 0.0127625 0)
(293.311 0.0144374 0)
(293.576 0.0158222 0)
(293.727 0.0175661 0)
(293.696 0.0188753 0)
(293.517 0.0165196 0)
(293.253 0.0158439 0)
(292.936 0.0207408 0)
(292.627 0.0297623 0)
(292.377 0.0448437 0)
(292.207 0.0514131 0)
(292.116 0.0509698 0)
(292.074 0.055505 0)
(292.051 0.0692121 0)
(292.027 0.0833293 0)
(291.978 0.0815879 0)
(291.908 0.094686 0)
(291.831 0.106965 0)
(291.73 0.104059 0)
(291.606 0.127049 0)
(7.88759e-006 2.26768e-012 0)
(5.25218e-005 -1.04338e-011 0)
(0.000277191 1.3406e-011 0)
(0.00138524 -1.84774e-011 0)
(0.0062845 -4.11142e-012 0)
(0.0264825 -2.76222e-012 0)
(0.101083 1.35502e-012 0)
(0.347209 1.45374e-012 0)
(1.04433 1.06191e-012 0)
(2.76268 -7.62507e-012 0)
(6.43189 -2.08408e-012 0)
(13.2046 -3.69273e-012 0)
(23.9034 -5.01398e-012 0)
(38.2984 -1.19309e-012 0)
(55.3955 2.50006e-012 0)
(73.6183 -4.4637e-012 0)
(92.1623 -1.5043e-012 0)
(110.342 8.4181e-012 0)
(128.177 3.23191e-012 0)
(145.25 5.78038e-012 0)
(161.803 3.01877e-012 0)
(177.652 -4.31323e-012 0)
(192.553 3.83855e-013 0)
(206.785 -2.21722e-012 0)
(220.009 -1.77929e-012 0)
(232.235 -3.3755e-012 0)
(243.53 2.94487e-013 0)
(253.575 -1.75653e-011 0)
(262.349 3.1619e-010 0)
(269.964 -3.11439e-009 0)
(276.254 5.06759e-008 0)
(281.397 -2.17007e-007 0)
(285.471 3.32141e-006 0)
(288.37 -4.39306e-006 0)
(290.071 0.000104184 0)
(290.989 0.000503161 0)
(291.737 0.00362623 0)
(292.26 0.00566989 0)
(292.516 0.0129049 0)
(292.737 0.0147243 0)
(293.013 0.0161421 0)
(293.311 0.0181023 0)
(293.576 0.0188191 0)
(293.727 0.020963 0)
(293.696 0.0227093 0)
(293.517 0.0215018 0)
(293.252 0.0172988 0)
(292.937 0.0203473 0)
(292.629 0.0310706 0)
(292.378 0.0456857 0)
(292.208 0.0581124 0)
(292.116 0.0678047 0)
(292.076 0.0757441 0)
(292.054 0.0829973 0)
(292.028 0.095889 0)
(291.979 0.109701 0)
(291.909 0.123742 0)
(291.832 0.116062 0)
(291.732 0.127945 0)
(291.605 0.154951 0)
(7.88759e-006 2.16337e-012 0)
(5.25218e-005 -1.18626e-011 0)
(0.000277191 1.33366e-011 0)
(0.00138524 -1.55797e-011 0)
(0.0062845 -8.53384e-012 0)
(0.0264825 -5.25843e-012 0)
(0.101083 1.02014e-012 0)
(0.347209 2.88116e-012 0)
(1.04433 2.32917e-012 0)
(2.76268 -7.13493e-012 0)
(6.43189 -1.93364e-012 0)
(13.2046 2.23716e-013 0)
(23.9034 -4.41859e-012 0)
(38.2984 1.67058e-012 0)
(55.3955 -9.83729e-013 0)
(73.6183 -1.15292e-012 0)
(92.1623 -3.53339e-012 0)
(110.342 7.24614e-012 0)
(128.177 3.45621e-012 0)
(145.25 3.71498e-012 0)
(161.803 1.81428e-013 0)
(177.652 -9.37365e-013 0)
(192.553 -1.36395e-012 0)
(206.785 -2.55432e-012 0)
(220.009 -8.46279e-013 0)
(232.235 -2.16752e-012 0)
(243.53 -6.61368e-013 0)
(253.575 -1.88352e-011 0)
(262.349 3.35125e-010 0)
(269.964 -3.28242e-009 0)
(276.254 5.36665e-008 0)
(281.397 -2.30388e-007 0)
(285.471 3.55763e-006 0)
(288.37 -4.87863e-006 0)
(290.071 0.000113715 0)
(290.989 0.000528032 0)
(291.737 0.00412668 0)
(292.26 0.00656105 0)
(292.517 0.0133498 0)
(292.737 0.0172371 0)
(293.014 0.0192762 0)
(293.311 0.0214477 0)
(293.576 0.0219867 0)
(293.727 0.0245248 0)
(293.696 0.0267666 0)
(293.516 0.0281248 0)
(293.252 0.0196399 0)
(292.937 0.0205689 0)
(292.63 0.0304981 0)
(292.38 0.0455187 0)
(292.209 0.0655095 0)
(292.118 0.0898841 0)
(292.076 0.0914237 0)
(292.054 0.0922594 0)
(292.031 0.104087 0)
(291.982 0.130749 0)
(291.909 0.153261 0)
(291.832 0.157642 0)
(291.737 0.153682 0)
(291.607 0.175051 0)
(7.88759e-006 9.35855e-013 0)
(5.25218e-005 -1.3695e-011 0)
(0.000277191 1.5903e-011 0)
(0.00138524 -1.88863e-011 0)
(0.0062845 -8.25546e-012 0)
(0.0264825 -5.7444e-012 0)
(0.101083 1.39565e-012 0)
(0.347209 4.09936e-012 0)
(1.04433 1.51197e-012 0)
(2.76268 -1.09966e-011 0)
(6.43189 -4.87094e-012 0)
(13.2046 -3.09558e-012 0)
(23.9034 -2.10131e-012 0)
(38.2984 1.13362e-012 0)
(55.3955 -2.15055e-012 0)
(73.6183 -2.67464e-012 0)
(92.1623 6.30897e-014 0)
(110.342 7.44295e-012 0)
(128.177 2.09201e-012 0)
(145.25 5.19544e-012 0)
(161.803 1.24793e-012 0)
(177.652 -4.05678e-013 0)
(192.553 1.35819e-012 0)
(206.785 -9.22659e-013 0)
(220.009 -2.24034e-012 0)
(232.235 -1.79164e-012 0)
(243.53 -3.14291e-012 0)
(253.575 -1.91074e-011 0)
(262.349 3.38998e-010 0)
(269.964 -3.34745e-009 0)
(276.254 5.49109e-008 0)
(281.397 -2.36439e-007 0)
(285.471 3.68434e-006 0)
(288.37 -5.23131e-006 0)
(290.071 0.0001202 0)
(290.989 0.000536967 0)
(291.737 0.00454258 0)
(292.261 0.00737643 0)
(292.517 0.0138036 0)
(292.737 0.0190462 0)
(293.014 0.021764 0)
(293.311 0.0240742 0)
(293.576 0.0251791 0)
(293.727 0.0279213 0)
(293.696 0.0301374 0)
(293.516 0.0329786 0)
(293.251 0.0221731 0)
(292.938 0.0213623 0)
(292.631 0.0348802 0)
(292.383 0.0508426 0)
(292.213 0.0773692 0)
(292.12 0.10442 0)
(292.076 0.105802 0)
(292.055 0.109967 0)
(292.034 0.123631 0)
(291.986 0.147877 0)
(291.913 0.174471 0)
(291.832 0.192795 0)
(291.735 0.175029 0)
(291.603 0.17719 0)
(7.88759e-006 6.4595e-013 0)
(5.25218e-005 -1.46625e-011 0)
(0.000277191 1.41026e-011 0)
(0.00138524 -1.78544e-011 0)
(0.0062845 -1.02929e-011 0)
(0.0264825 -6.82788e-012 0)
(0.101083 -1.59586e-012 0)
(0.347209 5.33083e-012 0)
(1.04433 1.07387e-012 0)
(2.76268 -1.11454e-011 0)
(6.43189 -2.93985e-012 0)
(13.2046 -1.64697e-012 0)
(23.9034 4.5034e-012 0)
(38.2984 2.50855e-012 0)
(55.3955 -1.48585e-012 0)
(73.6183 -1.12818e-012 0)
(92.1623 -2.14153e-012 0)
(110.342 5.88847e-012 0)
(128.177 7.07792e-013 0)
(145.25 6.52188e-012 0)
(161.803 -2.4499e-012 0)
(177.652 5.79811e-013 0)
(192.553 -1.52395e-012 0)
(206.785 -3.1228e-012 0)
(220.009 -1.77896e-012 0)
(232.235 -2.9142e-012 0)
(243.53 -2.65854e-012 0)
(253.575 -1.82827e-011 0)
(262.349 3.36333e-010 0)
(269.964 -3.31503e-009 0)
(276.254 5.46874e-008 0)
(281.397 -2.36238e-007 0)
(285.471 3.71533e-006 0)
(288.37 -5.45068e-006 0)
(290.071 0.000123864 0)
(290.989 0.000533609 0)
(291.738 0.00486392 0)
(292.261 0.00814391 0)
(292.518 0.0143275 0)
(292.738 0.0200619 0)
(293.014 0.0234639 0)
(293.311 0.0258966 0)
(293.576 0.0279305 0)
(293.727 0.0310425 0)
(293.696 0.0329925 0)
(293.515 0.0365815 0)
(293.251 0.0263084 0)
(292.939 0.0269269 0)
(292.633 0.0413954 0)
(292.385 0.0568043 0)
(292.216 0.0911482 0)
(292.121 0.10955 0)
(292.077 0.117282 0)
(292.056 0.131856 0)
(292.036 0.146704 0)
(291.99 0.158218 0)
(291.916 0.181504 0)
(291.832 0.190548 0)
(291.734 0.199843 0)
(291.601 0.208431 0)
(7.88759e-006 1.11963e-014 0)
(5.25218e-005 -1.39493e-011 0)
(0.000277191 1.63488e-011 0)
(0.00138524 -1.82804e-011 0)
(0.0062845 -9.20023e-012 0)
(0.0264825 -7.16393e-012 0)
(0.101083 -6.87576e-014 0)
(0.347209 6.25894e-012 0)
(1.04433 -3.08551e-012 0)
(2.76268 -1.43637e-011 0)
(6.43189 -7.29218e-012 0)
(13.2046 -1.64343e-012 0)
(23.9034 3.83005e-012 0)
(38.2984 2.64708e-012 0)
(55.3955 2.57459e-013 0)
(73.6183 -9.91523e-013 0)
(92.1623 -1.25491e-012 0)
(110.342 9.58584e-012 0)
(128.177 3.23635e-012 0)
(145.25 6.24273e-012 0)
(161.803 9.43225e-013 0)
(177.652 -7.94331e-013 0)
(192.553 4.706e-013 0)
(206.785 -2.93593e-012 0)
(220.009 -3.34245e-012 0)
(232.235 -2.63219e-012 0)
(243.53 -2.65312e-012 0)
(253.575 -1.79394e-011 0)
(262.349 3.24806e-010 0)
(269.964 -3.2145e-009 0)
(276.254 5.32801e-008 0)
(281.397 -2.30974e-007 0)
(285.471 3.66655e-006 0)
(288.37 -5.54067e-006 0)
(290.071 0.000124978 0)
(290.989 0.000521487 0)
(291.738 0.00508785 0)
(292.261 0.00887835 0)
(292.518 0.0149496 0)
(292.738 0.0205805 0)
(293.014 0.0246509 0)
(293.311 0.027204 0)
(293.577 0.0302012 0)
(293.727 0.0336979 0)
(293.696 0.0364491 0)
(293.515 0.0391413 0)
(293.25 0.0310966 0)
(292.939 0.0328749 0)
(292.635 0.0444482 0)
(292.388 0.0620803 0)
(292.219 0.0958516 0)
(292.122 0.11646 0)
(292.079 0.129447 0)
(292.059 0.155379 0)
(292.037 0.173933 0)
(291.991 0.174335 0)
(291.918 0.187809 0)
(291.835 0.202413 0)
(291.738 0.239494 0)
(291.601 0.235387 0)
(7.88759e-006 -3.91702e-013 0)
(5.25218e-005 -1.48752e-011 0)
(0.000277191 1.60854e-011 0)
(0.00138524 -1.60158e-011 0)
(0.0062845 -1.11549e-011 0)
(0.0264825 -7.79974e-012 0)
(0.101083 -5.99843e-014 0)
(0.347209 7.3312e-012 0)
(1.04433 -1.49571e-012 0)
(2.76268 -1.36133e-011 0)
(6.43189 -3.9125e-012 0)
(13.2046 5.40395e-013 0)
(23.9034 7.20931e-012 0)
(38.2984 1.74648e-012 0)
(55.3955 -4.88424e-013 0)
(73.6183 -2.08806e-012 0)
(92.1623 1.82245e-012 0)
(110.342 6.51592e-012 0)
(128.177 2.69715e-012 0)
(145.25 5.30497e-012 0)
(161.803 -1.35335e-012 0)
(177.652 -5.33769e-013 0)
(192.553 1.54961e-013 0)
(206.785 -4.07181e-012 0)
(220.009 -3.2102e-012 0)
(232.235 -1.5117e-012 0)
(243.53 -2.51928e-012 0)
(253.575 -1.63658e-011 0)
(262.349 3.08589e-010 0)
(269.964 -3.05709e-009 0)
(276.254 5.09876e-008 0)
(281.397 -2.21814e-007 0)
(285.471 3.5547e-006 0)
(288.37 -5.51e-006 0)
(290.071 0.000123868 0)
(290.99 0.000503583 0)
(291.738 0.00521696 0)
(292.262 0.00958138 0)
(292.519 0.015631 0)
(292.739 0.0210464 0)
(293.015 0.0257004 0)
(293.312 0.0281297 0)
(293.577 0.0319579 0)
(293.727 0.0357434 0)
(293.696 0.0400804 0)
(293.514 0.0423489 0)
(293.25 0.036247 0)
(292.94 0.0390051 0)
(292.636 0.0525014 0)
(292.391 0.0778345 0)
(292.222 0.0948215 0)
(292.125 0.123844 0)
(292.081 0.143033 0)
(292.062 0.162295 0)
(292.038 0.187098 0)
(291.992 0.214691 0)
(291.92 0.218934 0)
(291.839 0.23386 0)
(291.739 0.277822 0)
(291.597 0.246101 0)
(7.88759e-006 -5.17111e-012 0)
(5.25218e-005 -1.24832e-011 0)
(0.000277191 1.63091e-011 0)
(0.00138524 -1.58175e-011 0)
(0.0062845 -1.12568e-011 0)
(0.0264825 -7.96604e-012 0)
(0.101083 -2.50409e-013 0)
(0.347209 4.36594e-012 0)
(1.04433 -2.07232e-012 0)
(2.76268 -1.62408e-011 0)
(6.43189 -8.09502e-012 0)
(13.2046 -4.80856e-012 0)
(23.9034 1.0687e-011 0)
(38.2984 2.02411e-012 0)
(55.3955 -5.93976e-012 0)
(73.6183 -1.75411e-012 0)
(92.1623 3.9536e-012 0)
(110.342 1.21329e-011 0)
(128.177 -8.48164e-013 0)
(145.25 3.50524e-012 0)
(161.803 -4.60099e-012 0)
(177.652 -1.12513e-012 0)
(192.553 -2.30454e-012 0)
(206.785 -1.38235e-012 0)
(220.009 -2.7087e-012 0)
(232.235 -1.53708e-012 0)
(243.53 -4.7917e-013 0)
(253.575 -1.68206e-011 0)
(262.349 2.85653e-010 0)
(269.964 -2.86458e-009 0)
(276.254 4.80704e-008 0)
(281.397 -2.09856e-007 0)
(285.471 3.39595e-006 0)
(288.37 -5.37243e-006 0)
(290.071 0.000120892 0)
(290.99 0.00048228 0)
(291.739 0.005257 0)
(292.262 0.0102599 0)
(292.519 0.0163542 0)
(292.739 0.021772 0)
(293.015 0.0268796 0)
(293.312 0.0290305 0)
(293.577 0.0332691 0)
(293.728 0.0370653 0)
(293.696 0.042997 0)
(293.514 0.0466602 0)
(293.249 0.0436977 0)
(292.941 0.048519 0)
(292.638 0.0619366 0)
(292.392 0.0888594 0)
(292.224 0.0986285 0)
(292.128 0.1336 0)
(292.083 0.163127 0)
(292.064 0.17766 0)
(292.043 0.198023 0)
(291.995 0.242132 0)
(291.92 0.249746 0)
(291.843 0.250983 0)
(291.739 0.296272 0)
(291.592 0.272644 0)
(7.88759e-006 -3.59127e-012 0)
(5.25218e-005 -1.42968e-011 0)
(0.000277191 1.58085e-011 0)
(0.00138524 -1.39937e-011 0)
(0.0062845 -1.46117e-011 0)
(0.0264825 -6.09566e-012 0)
(0.101083 -2.76902e-012 0)
(0.347209 5.13567e-012 0)
(1.04433 2.73153e-013 0)
(2.76268 -1.58199e-011 0)
(6.43189 -5.75535e-012 0)
(13.2046 -2.1466e-012 0)
(23.9034 1.03237e-011 0)
(38.2984 8.37888e-013 0)
(55.3955 -2.79819e-012 0)
(73.6183 -5.54962e-013 0)
(92.1623 1.49662e-012 0)
(110.342 5.8481e-012 0)
(128.177 3.74472e-012 0)
(145.25 6.87112e-012 0)
(161.803 -1.76073e-012 0)
(177.652 -1.71281e-012 0)
(192.553 -1.91019e-012 0)
(206.785 -1.93265e-012 0)
(220.009 -3.61095e-012 0)
(232.235 -7.04608e-013 0)
(243.53 -1.42711e-012 0)
(253.575 -1.51213e-011 0)
(262.349 2.61637e-010 0)
(269.964 -2.64503e-009 0)
(276.254 4.47686e-008 0)
(281.397 -1.96055e-007 0)
(285.471 3.20513e-006 0)
(288.37 -5.14541e-006 0)
(290.071 0.000116426 0)
(290.99 0.000459363 0)
(291.739 0.00521492 0)
(292.263 0.0109297 0)
(292.52 0.0170852 0)
(292.739 0.0228469 0)
(293.015 0.0283861 0)
(293.312 0.0308136 0)
(293.577 0.0341808 0)
(293.728 0.0376453 0)
(293.696 0.045407 0)
(293.514 0.0501845 0)
(293.249 0.0508739 0)
(292.941 0.0573839 0)
(292.64 0.0720244 0)
(292.394 0.0969327 0)
(292.226 0.115921 0)
(292.132 0.147545 0)
(292.086 0.183599 0)
(292.066 0.205049 0)
(292.046 0.218227 0)
(291.998 0.236511 0)
(291.921 0.255786 0)
(291.846 0.274866 0)
(291.742 0.29861 0)
(291.589 0.303833 0)
(7.88758e-006 -6.91094e-012 0)
(5.25218e-005 -1.11944e-011 0)
(0.000277191 1.28013e-011 0)
(0.00138524 -9.69165e-012 0)
(0.0062845 -1.76886e-011 0)
(0.0264825 -8.27506e-012 0)
(0.101083 -1.93648e-012 0)
(0.347209 2.76594e-012 0)
(1.04433 -1.23102e-012 0)
(2.76268 -1.66484e-011 0)
(6.43189 -7.63413e-012 0)
(13.2046 -4.79562e-012 0)
(23.9034 1.21181e-011 0)
(38.2984 7.20778e-013 0)
(55.3955 -3.93194e-012 0)
(73.6183 -6.57811e-012 0)
(92.1623 3.28748e-012 0)
(110.342 9.50736e-012 0)
(128.177 2.82458e-012 0)
(145.25 6.73874e-012 0)
(161.803 -2.78865e-012 0)
(177.652 -1.64524e-012 0)
(192.553 -1.80642e-012 0)
(206.785 5.71423e-013 0)
(220.009 -3.57863e-013 0)
(232.235 -1.53331e-012 0)
(243.53 -7.59055e-013 0)
(253.575 -1.33967e-011 0)
(262.349 2.38113e-010 0)
(269.964 -2.41473e-009 0)
(276.254 4.12694e-008 0)
(281.397 -1.81226e-007 0)
(285.471 2.99491e-006 0)
(288.37 -4.84883e-006 0)
(290.071 0.000110851 0)
(290.99 0.000435975 0)
(291.739 0.00510103 0)
(292.263 0.0115978 0)
(292.52 0.0177206 0)
(292.74 0.0242246 0)
(293.015 0.0301555 0)
(293.312 0.0334965 0)
(293.577 0.0347817 0)
(293.728 0.0376702 0)
(293.697 0.0469659 0)
(293.514 0.0531705 0)
(293.249 0.058919 0)
(292.942 0.0694104 0)
(292.642 0.0865243 0)
(292.396 0.104399 0)
(292.229 0.133841 0)
(292.135 0.149285 0)
(292.089 0.196042 0)
(292.068 0.222485 0)
(292.047 0.230286 0)
(292 0.243517 0)
(291.925 0.26925 0)
(291.849 0.310554 0)
(291.743 0.307839 0)
(291.589 0.325196 0)
(7.88759e-006 -4.65777e-012 0)
(5.25218e-005 -1.54949e-011 0)
(0.000277191 1.42206e-011 0)
(0.00138524 -8.90139e-012 0)
(0.0062845 -1.78927e-011 0)
(0.0264825 -8.15912e-012 0)
(0.101083 -1.43137e-012 0)
(0.347209 2.78455e-012 0)
(1.04433 1.74483e-012 0)
(2.76268 -1.47552e-011 0)
(6.43189 -5.64456e-012 0)
(13.2046 -2.26542e-012 0)
(23.9034 1.03297e-011 0)
(38.2984 5.71094e-013 0)
(55.3955 1.32091e-012 0)
(73.6183 -6.11926e-012 0)
(92.1623 1.58156e-012 0)
(110.342 4.90444e-012 0)
(128.177 5.60977e-012 0)
(145.25 9.14044e-012 0)
(161.803 -1.14372e-012 0)
(177.652 -2.83339e-012 0)
(192.553 -2.81569e-012 0)
(206.785 -6.66406e-014 0)
(220.009 -2.93569e-012 0)
(232.235 -2.30208e-012 0)
(243.53 -1.08401e-012 0)
(253.575 -1.32421e-011 0)
(262.349 2.13579e-010 0)
(269.964 -2.18268e-009 0)
(276.254 3.77305e-008 0)
(281.397 -1.66003e-007 0)
(285.471 2.77559e-006 0)
(288.37 -4.50215e-006 0)
(290.071 0.000104514 0)
(290.99 0.000412825 0)
(291.74 0.00492757 0)
(292.264 0.0122485 0)
(292.521 0.0182102 0)
(292.74 0.0257017 0)
(293.016 0.0319188 0)
(293.312 0.0361963 0)
(293.577 0.035641 0)
(293.729 0.0377024 0)
(293.697 0.0471791 0)
(293.514 0.0567578 0)
(293.25 0.069269 0)
(292.943 0.0851664 0)
(292.643 0.1001 0)
(292.398 0.109298 0)
(292.23 0.139036 0)
(292.138 0.150327 0)
(292.094 0.203474 0)
(292.069 0.240017 0)
(292.049 0.239581 0)
(292.003 0.261538 0)
(291.929 0.304739 0)
(291.851 0.342177 0)
(291.744 0.335831 0)
(291.59 0.338999 0)
(7.88758e-006 -6.46965e-012 0)
(5.25218e-005 -1.33389e-011 0)
(0.000277191 1.03655e-011 0)
(0.00138524 -4.91549e-012 0)
(0.0062845 -1.77471e-011 0)
(0.0264825 -1.01696e-011 0)
(0.101083 -1.17289e-012 0)
(0.347209 5.52842e-013 0)
(1.04433 -1.77155e-012 0)
(2.76268 -1.40473e-011 0)
(6.43189 -5.21214e-012 0)
(13.2046 -6.11324e-012 0)
(23.9034 9.616e-012 0)
(38.2984 3.77461e-012 0)
(55.3955 -5.48143e-013 0)
(73.6183 -3.19308e-012 0)
(92.1623 5.46379e-013 0)
(110.342 1.13633e-011 0)
(128.177 3.48782e-012 0)
(145.25 5.96415e-012 0)
(161.803 -3.55462e-012 0)
(177.652 -3.04149e-012 0)
(192.553 -3.42932e-012 0)
(206.785 -1.45578e-012 0)
(220.009 -2.1909e-012 0)
(232.235 -1.43995e-012 0)
(243.53 4.04821e-013 0)
(253.575 -1.04719e-011 0)
(262.349 1.89912e-010 0)
(269.964 -1.95712e-009 0)
(276.254 3.42615e-008 0)
(281.397 -1.50888e-007 0)
(285.471 2.55517e-006 0)
(288.37 -4.12211e-006 0)
(290.072 9.77153e-005 0)
(290.99 0.000390392 0)
(291.74 0.00470728 0)
(292.264 0.0128467 0)
(292.521 0.0186525 0)
(292.741 0.0269934 0)
(293.016 0.0334904 0)
(293.312 0.0385475 0)
(293.577 0.036906 0)
(293.729 0.038322 0)
(293.698 0.0478227 0)
(293.515 0.05966 0)
(293.251 0.076734 0)
(292.944 0.0929374 0)
(292.644 0.104727 0)
(292.4 0.117338 0)
(292.232 0.14411 0)
(292.141 0.168963 0)
(292.098 0.211279 0)
(292.071 0.252328 0)
(292.049 0.256432 0)
(292.007 0.271261 0)
(291.934 0.346059 0)
(291.853 0.371401 0)
(291.743 0.356775 0)
(291.587 0.374016 0)
(7.88758e-006 -7.41562e-012 0)
(5.25218e-005 -1.6851e-011 0)
(0.000277191 1.07349e-011 0)
(0.00138524 -4.98085e-012 0)
(0.0062845 -1.61693e-011 0)
(0.0264825 -8.53387e-012 0)
(0.101083 -3.22235e-012 0)
(0.347209 1.21613e-012 0)
(1.04433 5.13607e-013 0)
(2.76268 -1.2765e-011 0)
(6.43189 -7.43873e-012 0)
(13.2046 -5.16693e-012 0)
(23.9034 8.01769e-012 0)
(38.2984 1.43554e-012 0)
(55.3955 -9.34128e-013 0)
(73.6183 -4.76035e-012 0)
(92.1623 4.86128e-012 0)
(110.342 6.08037e-012 0)
(128.177 6.42439e-012 0)
(145.25 5.96304e-012 0)
(161.803 -2.7016e-013 0)
(177.652 -2.14764e-012 0)
(192.553 -4.00419e-012 0)
(206.785 -5.85399e-013 0)
(220.009 -1.06558e-012 0)
(232.235 -1.18584e-012 0)
(243.53 1.41554e-012 0)
(253.575 -8.96841e-012 0)
(262.349 1.68514e-010 0)
(269.964 -1.73904e-009 0)
(276.254 3.09491e-008 0)
(281.397 -1.36255e-007 0)
(285.471 2.33967e-006 0)
(288.37 -3.72382e-006 0)
(290.072 9.07085e-005 0)
(290.991 0.00036888 0)
(291.741 0.00445279 0)
(292.265 0.0133621 0)
(292.522 0.0191536 0)
(292.741 0.0279871 0)
(293.017 0.0348016 0)
(293.312 0.0406501 0)
(293.577 0.03847 0)
(293.729 0.0397174 0)
(293.698 0.050018 0)
(293.516 0.0623189 0)
(293.252 0.0815947 0)
(292.945 0.0957027 0)
(292.645 0.107058 0)
(292.402 0.127468 0)
(292.235 0.150673 0)
(292.144 0.181432 0)
(292.102 0.211265 0)
(292.074 0.261854 0)
(292.05 0.286617 0)
(292.013 0.300109 0)
(291.94 0.370947 0)
(291.852 0.38061 0)
(291.744 0.368933 0)
(291.59 0.415393 0)
(7.88758e-006 -7.73241e-012 0)
(5.25218e-005 -1.26521e-011 0)
(0.000277191 7.78177e-012 0)
(0.00138524 -3.92304e-012 0)
(0.0062845 -1.5935e-011 0)
(0.0264825 -9.76147e-012 0)
(0.101083 -3.38676e-012 0)
(0.347209 -5.99659e-013 0)
(1.04433 -1.13539e-012 0)
(2.76268 -1.12127e-011 0)
(6.43189 -8.55139e-012 0)
(13.2046 -8.92054e-012 0)
(23.9034 7.58401e-012 0)
(38.2984 2.22319e-012 0)
(55.3955 -3.37643e-012 0)
(73.6183 -4.2831e-012 0)
(92.1623 4.6303e-012 0)
(110.342 8.33162e-012 0)
(128.177 8.36772e-013 0)
(145.25 3.46489e-012 0)
(161.803 -2.57215e-012 0)
(177.652 -5.9773e-013 0)
(192.553 -3.486e-012 0)
(206.785 -2.43641e-012 0)
(220.009 2.33875e-013 0)
(232.235 1.06958e-012 0)
(243.53 -2.59145e-013 0)
(253.575 -7.59553e-012 0)
(262.349 1.45185e-010 0)
(269.964 -1.53809e-009 0)
(276.254 2.7844e-008 0)
(281.397 -1.22375e-007 0)
(285.471 2.13336e-006 0)
(288.37 -3.31935e-006 0)
(290.072 8.36902e-005 0)
(290.991 0.00034852 0)
(291.741 0.00417419 0)
(292.265 0.0137835 0)
(292.522 0.0196834 0)
(292.742 0.028839 0)
(293.017 0.0359454 0)
(293.313 0.0425727 0)
(293.577 0.0402371 0)
(293.729 0.0415681 0)
(293.699 0.052811 0)
(293.517 0.0658255 0)
(293.253 0.0832836 0)
(292.946 0.0968331 0)
(292.646 0.109334 0)
(292.404 0.135648 0)
(292.237 0.155713 0)
(292.146 0.192402 0)
(292.106 0.20915 0)
(292.079 0.270285 0)
(292.053 0.320848 0)
(292.016 0.342986 0)
(291.943 0.377414 0)
(291.852 0.384202 0)
(291.747 0.416723 0)
(291.594 0.433538 0)
(7.88758e-006 -8.17621e-012 0)
(5.25218e-005 -1.56234e-011 0)
(0.000277191 9.18617e-012 0)
(0.00138524 -4.66044e-012 0)
(0.0062845 -1.55092e-011 0)
(0.0264825 -7.94345e-012 0)
(0.101083 -4.02577e-012 0)
(0.347209 4.23196e-013 0)
(1.04433 -1.86551e-012 0)
(2.76268 -1.15629e-011 0)
(6.43189 -1.15733e-011 0)
(13.2046 -5.68023e-012 0)
(23.9034 5.03954e-012 0)
(38.2984 2.91618e-012 0)
(55.3955 -2.22438e-012 0)
(73.6183 -1.54343e-012 0)
(92.1623 7.81756e-013 0)
(110.342 8.30892e-012 0)
(128.177 2.77915e-012 0)
(145.25 4.83951e-012 0)
(161.803 -1.88021e-012 0)
(177.652 -3.79864e-012 0)
(192.553 -4.90658e-012 0)
(206.785 -1.87387e-012 0)
(220.009 -7.20794e-013 0)
(232.235 -1.21036e-012 0)
(243.53 2.08696e-013 0)
(253.575 -5.9181e-012 0)
(262.349 1.27802e-010 0)
(269.964 -1.3495e-009 0)
(276.254 2.49904e-008 0)
(281.397 -1.0942e-007 0)
(285.471 1.93908e-006 0)
(288.37 -2.91763e-006 0)
(290.072 7.6803e-005 0)
(290.991 0.000329515 0)
(291.742 0.00388103 0)
(292.266 0.0141005 0)
(292.523 0.0202131 0)
(292.743 0.0296773 0)
(293.018 0.0369685 0)
(293.313 0.0440931 0)
(293.577 0.0423944 0)
(293.73 0.0438876 0)
(293.699 0.0557433 0)
(293.517 0.0685179 0)
(293.254 0.0820363 0)
(292.947 0.0970217 0)
(292.648 0.113958 0)
(292.405 0.144227 0)
(292.24 0.165501 0)
(292.149 0.200344 0)
(292.109 0.217981 0)
(292.084 0.273566 0)
(292.058 0.344596 0)
(292.018 0.375558 0)
(291.945 0.381284 0)
(291.856 0.409205 0)
(291.75 0.449222 0)
(291.59 0.457358 0)
(7.88758e-006 -7.08999e-012 0)
(5.25218e-005 -1.08145e-011 0)
(0.000277191 3.85001e-012 0)
(0.00138524 -4.48239e-012 0)
(0.0062845 -1.46724e-011 0)
(0.0264825 -7.43292e-012 0)
(0.101083 -2.37263e-012 0)
(0.347209 -1.60874e-012 0)
(1.04433 -7.64715e-013 0)
(2.76268 -1.13863e-011 0)
(6.43189 -9.20766e-012 0)
(13.2046 -9.22803e-012 0)
(23.9034 7.32077e-012 0)
(38.2984 1.5883e-014 0)
(55.3955 -6.20547e-013 0)
(73.6183 -4.24081e-012 0)
(92.1623 4.84683e-012 0)
(110.342 7.09699e-012 0)
(128.177 1.04694e-012 0)
(145.25 3.3203e-012 0)
(161.803 -3.82018e-012 0)
(177.652 -3.53849e-012 0)
(192.553 -5.18681e-012 0)
(206.785 -2.79048e-012 0)
(220.009 -1.89597e-012 0)
(232.235 -3.36391e-013 0)
(243.53 -4.39227e-013 0)
(253.575 -6.78193e-012 0)
(262.349 1.08601e-010 0)
(269.964 -1.18048e-009 0)
(276.254 2.23953e-008 0)
(281.397 -9.74993e-008 0)
(285.471 1.75852e-006 0)
(288.37 -2.52589e-006 0)
(290.072 7.01504e-005 0)
(290.991 0.000311958 0)
(291.742 0.00358173 0)
(292.266 0.014302 0)
(292.523 0.02077 0)
(292.743 0.0305019 0)
(293.018 0.0379451 0)
(293.313 0.0451268 0)
(293.577 0.044847 0)
(293.73 0.0466031 0)
(293.7 0.0585411 0)
(293.518 0.070672 0)
(293.255 0.0834172 0)
(292.948 0.0974165 0)
(292.649 0.121041 0)
(292.407 0.146979 0)
(292.242 0.175664 0)