/*--------------------------------*- C++ -*----------------------------------*\
| =========                 |                                                 |
| \\      /  F ield         | OpenFOAM: The Open Source CFD Toolbox           |
|  \\    /   O peration     | Version:  5.x                                   |
|   \\  /    A nd           | Web:      www.OpenFOAM.org                      |
|    \\/     M anipulation  |                                                 |
\*---------------------------------------------------------------------------*/
/*   Windows 32 and 64 bit porting by blueCAPE: http://www.bluecape.com.pt   *\
|  Based on Windows porting (2.0.x v4) by Symscape: http://www.symscape.com   |
\*---------------------------------------------------------------------------*/
FoamFile
{
    version     2.0;
    format      ascii;
    class       volVectorField;
    location    "0.006";
    object      U_0;
}
// * * * * * * * * * * * * * * * * * * * * * * * * * * * * * * * * * * * * * //

dimensions      [0 1 -1 0 0 0 0];

internalField   nonuniform List<vector> 
10000
(
(7.85491e-006 1.10277e-012 0)
(5.23147e-005 1.81041e-012 0)
(0.000276155 5.05987e-013 0)
(0.00138037 -1.44766e-012 0)
(0.00626376 -1.65829e-012 0)
(0.0264015 -2.4104e-012 0)
(0.100797 2.51907e-012 0)
(0.346336 1.70862e-012 0)
(1.04203 1.50024e-012 0)
(2.75743 -7.90808e-013 0)
(6.42151 -1.74086e-012 0)
(13.1871 1.42164e-012 0)
(23.8784 2.88612e-013 0)
(38.2679 -1.62223e-012 0)
(55.3626 -2.54335e-012 0)
(73.586 -4.24374e-012 0)
(92.132 -8.00887e-013 0)
(110.314 1.01993e-011 0)
(128.152 -4.74333e-012 0)
(145.228 -1.50586e-012 0)
(161.783 3.81993e-012 0)
(177.635 9.87157e-013 0)
(192.538 3.68264e-012 0)
(206.773 8.54685e-013 0)
(220 5.66974e-013 0)
(232.228 -8.09053e-013 0)
(243.524 1.9199e-012 0)
(253.571 3.12229e-014 0)
(262.347 4.11165e-011 0)
(269.963 -3.98014e-010 0)
(276.253 6.37566e-009 0)
(281.398 -2.73543e-008 0)
(285.472 4.05065e-007 0)
(288.37 -4.71651e-007 0)
(290.071 1.20094e-005 0)
(290.988 6.69112e-005 0)
(291.737 0.00035895 0)
(292.259 0.000594548 0)
(292.516 0.00188167 0)
(292.738 0.00109116 0)
(293.014 0.00121567 0)
(293.312 0.00145862 0)
(293.577 0.00166892 0)
(293.727 0.0017346 0)
(293.696 0.00220214 0)
(293.517 0.00128751 0)
(293.25 0.00241898 0)
(292.933 0.00332294 0)
(292.623 0.00653059 0)
(292.373 0.0105749 0)
(292.206 0.00907907 0)
(292.114 0.00741733 0)
(292.074 0.0033156 0)
(292.055 -0.00106742 0)
(292.024 0.000548554 0)
(291.967 0.00967919 0)
(291.903 0.010134 0)
(291.83 0.0127172 0)
(291.727 0.0189356 0)
(291.609 -0.00200528 0)
(7.85491e-006 4.23002e-013 0)
(5.23147e-005 -4.33726e-012 0)
(0.000276155 5.91011e-012 0)
(0.00138037 -4.54276e-012 0)
(0.00626376 -5.03006e-013 0)
(0.0264015 -3.83692e-012 0)
(0.100797 -1.04507e-012 0)
(0.346336 1.50596e-012 0)
(1.04203 1.20663e-012 0)
(2.75743 -1.92771e-012 0)
(6.42151 2.53485e-012 0)
(13.1871 2.12711e-012 0)
(23.8784 -5.92197e-014 0)
(38.2679 -5.59287e-012 0)
(55.3626 -1.48456e-012 0)
(73.586 -4.8519e-013 0)
(92.132 -2.25035e-012 0)
(110.314 -1.30497e-012 0)
(128.152 3.43717e-012 0)
(145.228 5.11493e-012 0)
(161.783 -6.58732e-013 0)
(177.635 2.27706e-012 0)
(192.538 -5.95375e-013 0)
(206.773 1.3144e-012 0)
(220 -3.49246e-012 0)
(232.228 -3.63368e-012 0)
(243.524 -3.02939e-012 0)
(253.571 -9.48656e-012 0)
(262.347 1.1569e-010 0)
(269.963 -1.15612e-009 0)
(276.253 1.85478e-008 0)
(281.398 -7.95115e-008 0)
(285.472 1.18221e-006 0)
(288.37 -1.39457e-006 0)
(290.071 3.52283e-005 0)
(290.988 0.000193236 0)
(291.737 0.00107207 0)
(292.259 0.00169999 0)
(292.516 0.00546445 0)
(292.738 0.0036125 0)
(293.014 0.00377203 0)
(293.312 0.00468398 0)
(293.577 0.00502518 0)
(293.727 0.00544212 0)
(293.696 0.007061 0)
(293.517 0.00700877 0)
(293.25 0.00926965 0)
(292.933 0.0122998 0)
(292.624 0.0167835 0)
(292.374 0.0248497 0)
(292.206 0.0217517 0)
(292.114 0.0216635 0)
(292.073 0.0213257 0)
(292.055 0.00572397 0)
(292.026 -0.00677088 0)
(291.968 0.0195171 0)
(291.903 0.0329289 0)
(291.832 0.028563 0)
(291.724 0.0483197 0)
(291.604 0.024863 0)
(7.8549e-006 4.049e-012 0)
(5.23147e-005 -1.33535e-012 0)
(0.000276155 8.00836e-012 0)
(0.00138037 -4.23707e-012 0)
(0.00626376 -3.00828e-012 0)
(0.0264015 -5.3934e-012 0)
(0.100797 2.18325e-012 0)
(0.346336 8.8457e-013 0)
(1.04203 1.68801e-012 0)
(2.75743 -5.5618e-012 0)
(6.42151 -8.3253e-013 0)
(13.1871 2.50649e-012 0)
(23.8784 -5.54758e-012 0)
(38.2679 -2.21491e-012 0)
(55.3626 3.77365e-013 0)
(73.586 -3.77281e-012 0)
(92.132 2.54145e-014 0)
(110.314 1.38301e-011 0)
(128.152 -1.32113e-012 0)
(145.228 2.55071e-012 0)
(161.783 -2.04911e-012 0)
(177.635 7.91374e-013 0)
(192.538 9.01529e-013 0)
(206.773 1.2892e-012 0)
(220 -1.04165e-012 0)
(232.228 -3.11569e-012 0)
(243.524 -1.74776e-012 0)
(253.571 -1.23073e-011 0)
(262.347 1.8318e-010 0)
(269.963 -1.82091e-009 0)
(276.253 2.9313e-008 0)
(281.398 -1.25598e-007 0)
(285.472 1.87923e-006 0)
(288.37 -2.27211e-006 0)
(290.071 5.65294e-005 0)
(290.988 0.000301967 0)
(291.737 0.00177058 0)
(292.259 0.00271892 0)
(292.516 0.00854641 0)
(292.738 0.00645071 0)
(293.014 0.00670261 0)
(293.312 0.0081233 0)
(293.577 0.00862466 0)
(293.727 0.00966233 0)
(293.696 0.0113048 0)
(293.517 0.0110709 0)
(293.25 0.0134359 0)
(292.933 0.0188564 0)
(292.624 0.0199503 0)
(292.374 0.026686 0)
(292.206 0.0305176 0)
(292.114 0.0306606 0)
(292.072 0.0449503 0)
(292.051 0.0362685 0)
(292.027 0.0123987 0)
(291.974 0.0361329 0)
(291.904 0.0598064 0)
(291.833 0.0432455 0)
(291.726 0.0534364 0)
(291.601 0.0632508 0)
(7.8549e-006 3.05818e-012 0)
(5.23147e-005 -5.04586e-012 0)
(0.000276155 9.77517e-012 0)
(0.00138037 -1.38071e-011 0)
(0.00626376 -1.80185e-012 0)
(0.0264015 -1.89764e-012 0)
(0.100797 -7.59226e-013 0)
(0.346336 7.93944e-013 0)
(1.04203 -3.14729e-013 0)
(2.75743 -3.13652e-012 0)
(6.42151 -2.62814e-012 0)
(13.1871 -9.47932e-013 0)
(23.8784 -3.617e-012 0)
(38.2679 -3.31767e-012 0)
(55.3626 5.05161e-013 0)
(73.586 3.62904e-013 0)
(92.132 -3.79477e-012 0)
(110.314 4.12369e-012 0)
(128.152 5.53891e-012 0)
(145.228 6.396e-012 0)
(161.783 1.28444e-012 0)
(177.635 -1.30607e-012 0)
(192.538 -1.88743e-012 0)
(206.773 -1.06467e-012 0)
(220 -1.02716e-012 0)
(232.228 -2.75698e-012 0)
(243.524 -3.8031e-012 0)
(253.571 -1.53294e-011 0)
(262.347 2.36436e-010 0)
(269.963 -2.36908e-009 0)
(276.253 3.82568e-008 0)
(281.398 -1.64025e-007 0)
(285.472 2.47209e-006 0)
(288.37 -3.08599e-006 0)
(290.071 7.5305e-005 0)
(290.988 0.000389338 0)
(291.737 0.00244025 0)
(292.259 0.00370645 0)
(292.516 0.0108802 0)
(292.738 0.00916049 0)
(293.014 0.00970918 0)
(293.312 0.0112091 0)
(293.577 0.0124535 0)
(293.727 0.0139933 0)
(293.696 0.0149997 0)
(293.517 0.0130048 0)
(293.251 0.0148155 0)
(292.934 0.0221775 0)
(292.624 0.0252216 0)
(292.375 0.0348074 0)
(292.206 0.0418657 0)
(292.116 0.0387344 0)
(292.073 0.0489758 0)
(292.05 0.0562511 0)
(292.026 0.0530801 0)
(291.976 0.0594937 0)
(291.905 0.0779491 0)
(291.831 0.0792139 0)
(291.727 0.0688175 0)
(291.601 0.0969156 0)
(7.8549e-006 5.89567e-012 0)
(5.23147e-005 -6.39594e-012 0)
(0.000276155 1.04966e-011 0)
(0.00138037 -1.27134e-011 0)
(0.00626376 -3.1228e-012 0)
(0.0264015 -4.84646e-012 0)
(0.100797 5.20402e-013 0)
(0.346336 1.78229e-012 0)
(1.04203 -2.44284e-013 0)
(2.75743 -7.17891e-012 0)
(6.42151 -2.78043e-012 0)
(13.1871 -1.03975e-012 0)
(23.8784 -4.62469e-012 0)
(38.2679 3.05618e-013 0)
(55.3626 4.72237e-012 0)
(73.586 -7.07223e-012 0)
(92.132 -2.52682e-012 0)
(110.314 9.03948e-012 0)
(128.152 2.75532e-012 0)
(145.228 7.59789e-012 0)
(161.783 1.26347e-012 0)
(177.635 -2.69591e-012 0)
(192.538 -2.33998e-012 0)
(206.773 -9.80246e-013 0)
(220 -1.95845e-012 0)
(232.228 -9.42886e-013 0)
(243.524 -2.8051e-012 0)
(253.571 -1.72538e-011 0)
(262.347 2.80731e-010 0)
(269.963 -2.78459e-009 0)
(276.253 4.51814e-008 0)
(281.398 -1.93949e-007 0)
(285.472 2.94681e-006 0)
(288.371 -3.80963e-006 0)
(290.071 9.11152e-005 0)
(290.988 0.000454382 0)
(291.738 0.0030667 0)
(292.26 0.00468655 0)
(292.516 0.0122946 0)
(292.737 0.0119292 0)
(293.014 0.0128255 0)
(293.312 0.0144978 0)
(293.577 0.0158608 0)
(293.727 0.017615 0)
(293.696 0.0188482 0)
(293.517 0.0164873 0)
(293.251 0.0159384 0)
(292.935 0.0208059 0)
(292.626 0.0298658 0)
(292.376 0.0449192 0)
(292.206 0.0515607 0)
(292.115 0.0512412 0)
(292.074 0.0552321 0)
(292.051 0.0690315 0)
(292.027 0.0835174 0)
(291.978 0.0823334 0)
(291.908 0.0945176 0)
(291.831 0.106264 0)
(291.729 0.105066 0)
(291.605 0.126264 0)
(7.8549e-006 2.33085e-012 0)
(5.23147e-005 -1.03807e-011 0)
(0.000276155 1.33234e-011 0)
(0.00138037 -1.83428e-011 0)
(0.00626376 -4.12688e-012 0)
(0.0264015 -2.74057e-012 0)
(0.100797 1.34389e-012 0)
(0.346336 1.40937e-012 0)
(1.04203 1.05926e-012 0)
(2.75743 -7.65514e-012 0)
(6.42151 -2.05051e-012 0)
(13.1871 -3.67685e-012 0)
(23.8784 -5.04539e-012 0)
(38.2679 -1.09858e-012 0)
(55.3626 2.46066e-012 0)
(73.586 -4.54404e-012 0)
(92.132 -1.57698e-012 0)
(110.314 8.40416e-012 0)
(128.152 3.23988e-012 0)
(145.228 5.81018e-012 0)
(161.783 2.98477e-012 0)
(177.635 -4.3362e-012 0)
(192.538 3.39953e-013 0)
(206.773 -2.24671e-012 0)
(220 -1.77047e-012 0)
(232.228 -3.36836e-012 0)
(243.524 2.4713e-013 0)
(253.571 -1.73543e-011 0)
(262.347 3.10667e-010 0)
(269.963 -3.07388e-009 0)
(276.253 5.00567e-008 0)
(281.398 -2.15292e-007 0)
(285.472 3.29926e-006 0)
(288.371 -4.42025e-006 0)
(290.071 0.000103759 0)
(290.989 0.000497949 0)
(291.738 0.00363647 0)
(292.26 0.00566059 0)
(292.517 0.0129712 0)
(292.738 0.0147783 0)
(293.014 0.0161926 0)
(293.312 0.0181592 0)
(293.577 0.018861 0)
(293.727 0.0210188 0)
(293.696 0.022733 0)
(293.516 0.02152 0)
(293.251 0.0173938 0)
(292.935 0.0205138 0)
(292.627 0.0312452 0)
(292.377 0.0457809 0)
(292.207 0.0583113 0)
(292.116 0.0677767 0)
(292.076 0.0753198 0)
(292.054 0.083675 0)
(292.028 0.0970398 0)
(291.978 0.108655 0)
(291.909 0.122307 0)
(291.832 0.116406 0)
(291.731 0.128925 0)
(291.603 0.154523 0)
(7.8549e-006 2.22601e-012 0)
(5.23147e-005 -1.17831e-011 0)
(0.000276155 1.3282e-011 0)
(0.00138037 -1.54278e-011 0)
(0.00626376 -8.55982e-012 0)
(0.0264015 -5.29463e-012 0)
(0.100797 1.00679e-012 0)
(0.346336 2.86273e-012 0)
(1.04203 2.35744e-012 0)
(2.75743 -7.12269e-012 0)
(6.42151 -1.9157e-012 0)
(13.1871 2.26087e-013 0)
(23.8784 -4.45015e-012 0)
(38.2679 1.70686e-012 0)
(55.3626 -1.0083e-012 0)
(73.586 -1.22624e-012 0)
(92.132 -3.58823e-012 0)
(110.314 7.26023e-012 0)
(128.152 3.46898e-012 0)
(145.228 3.7317e-012 0)
(161.783 1.56356e-013 0)
(177.635 -9.39296e-013 0)
(192.538 -1.40062e-012 0)
(206.773 -2.60125e-012 0)
(220 -8.63542e-013 0)
(232.228 -2.14952e-012 0)
(243.524 -7.20183e-013 0)
(253.571 -1.86154e-011 0)
(262.347 3.29248e-010 0)
(269.963 -3.23914e-009 0)
(276.253 5.30005e-008 0)
(281.398 -2.28498e-007 0)
(285.472 3.53304e-006 0)
(288.371 -4.90277e-006 0)
(290.071 0.000113224 0)
(290.989 0.000522361 0)
(291.738 0.00413463 0)
(292.261 0.00656194 0)
(292.517 0.0133964 0)
(292.738 0.0172841 0)
(293.015 0.0193171 0)
(293.312 0.0214939 0)
(293.577 0.022028 0)
(293.727 0.0245938 0)
(293.696 0.0268681 0)
(293.516 0.0282444 0)
(293.251 0.0197894 0)
(292.936 0.0207731 0)
(292.629 0.0306935 0)
(292.379 0.0454697 0)
(292.209 0.0656616 0)
(292.117 0.089353 0)
(292.076 0.0913623 0)
(292.054 0.0934347 0)
(292.031 0.105068 0)
(291.981 0.128434 0)
(291.909 0.152179 0)
(291.832 0.158669 0)
(291.735 0.153474 0)
(291.605 0.175607 0)
(7.8549e-006 9.3161e-013 0)
(5.23147e-005 -1.36069e-011 0)
(0.000276155 1.58216e-011 0)
(0.00138037 -1.87857e-011 0)
(0.00626376 -8.25263e-012 0)
(0.0264015 -5.7277e-012 0)
(0.100797 1.40198e-012 0)
(0.346336 4.08496e-012 0)
(1.04203 1.51877e-012 0)
(2.75743 -1.09672e-011 0)
(6.42151 -4.85088e-012 0)
(13.1871 -3.11099e-012 0)
(23.8784 -2.11025e-012 0)
(38.2679 1.07203e-012 0)
(55.3626 -2.1647e-012 0)
(73.586 -2.70451e-012 0)
(92.132 6.23307e-015 0)
(110.314 7.49137e-012 0)
(128.152 2.1401e-012 0)
(145.228 5.18179e-012 0)
(161.783 1.21888e-012 0)
(177.635 -3.82639e-013 0)
(192.538 1.31789e-012 0)
(206.773 -9.45843e-013 0)
(220 -2.25037e-012 0)
(232.228 -1.80195e-012 0)
(243.524 -3.18988e-012 0)
(253.571 -1.88597e-011 0)
(262.347 3.32956e-010 0)
(269.963 -3.30275e-009 0)
(276.253 5.42178e-008 0)
(281.398 -2.34424e-007 0)
(285.472 3.65791e-006 0)
(288.371 -5.25101e-006 0)
(290.071 0.000119648 0)
(290.989 0.000530999 0)
(291.738 0.00454766 0)
(292.261 0.00738625 0)
(292.518 0.0138321 0)
(292.738 0.0190924 0)
(293.015 0.0218032 0)
(293.312 0.0241162 0)
(293.577 0.0252289 0)
(293.728 0.0280067 0)
(293.696 0.0303037 0)
(293.515 0.0331726 0)
(293.25 0.0223704 0)
(292.936 0.0214489 0)
(292.63 0.0349933 0)
(292.382 0.0508822 0)
(292.212 0.0775575 0)
(292.119 0.104249 0)
(292.076 0.105732 0)
(292.055 0.110222 0)
(292.033 0.123984 0)
(291.985 0.14677 0)
(291.913 0.174146 0)
(291.833 0.194033 0)
(291.734 0.174814 0)
(291.601 0.176544 0)
(7.8549e-006 6.98359e-013 0)
(5.23147e-005 -1.45512e-011 0)
(0.000276155 1.40486e-011 0)
(0.00138037 -1.77802e-011 0)
(0.00626376 -1.02017e-011 0)
(0.0264015 -6.73577e-012 0)
(0.100797 -1.59381e-012 0)
(0.346336 5.33291e-012 0)
(1.04203 1.07905e-012 0)
(2.75743 -1.10999e-011 0)
(6.42151 -2.93764e-012 0)
(13.1871 -1.71529e-012 0)
(23.8784 4.47002e-012 0)
(38.2679 2.40355e-012 0)
(55.3626 -1.47182e-012 0)
(73.586 -1.12276e-012 0)
(92.132 -2.14326e-012 0)
(110.314 5.90534e-012 0)
(128.152 7.57167e-013 0)
(145.228 6.51325e-012 0)
(161.783 -2.47316e-012 0)
(177.635 5.82187e-013 0)
(192.538 -1.51041e-012 0)
(206.773 -3.10445e-012 0)
(220 -1.78501e-012 0)
(232.228 -2.92078e-012 0)
(243.524 -2.69831e-012 0)
(253.571 -1.80304e-011 0)
(262.347 3.30262e-010 0)
(269.963 -3.26998e-009 0)
(276.253 5.39844e-008 0)
(281.398 -2.34144e-007 0)
(285.472 3.68765e-006 0)
(288.371 -5.46523e-006 0)
(290.071 0.000123259 0)
(290.989 0.000527478 0)
(291.739 0.00486592 0)
(292.262 0.00815993 0)
(292.518 0.0143443 0)
(292.739 0.0201084 0)
(293.015 0.0235043 0)
(293.312 0.0259375 0)
(293.577 0.0279929 0)
(293.728 0.0311291 0)
(293.696 0.0331633 0)
(293.514 0.0367791 0)
(293.249 0.0264486 0)
(292.937 0.0268943 0)
(292.632 0.0413688 0)
(292.384 0.0570242 0)
(292.215 0.091686 0)
(292.121 0.109936 0)
(292.077 0.117389 0)
(292.057 0.131001 0)
(292.036 0.145968 0)
(291.989 0.159529 0)
(291.916 0.181736 0)
(291.833 0.190772 0)
(291.733 0.200877 0)
(291.599 0.205711 0)
(7.8549e-006 1.11691e-013 0)
(5.23147e-005 -1.38323e-011 0)
(0.000276155 1.63257e-011 0)
(0.00138037 -1.82066e-011 0)
(0.00626376 -9.10761e-012 0)
(0.0264015 -7.05661e-012 0)
(0.100797 -7.1021e-014 0)
(0.346336 6.2832e-012 0)
(1.04203 -3.02935e-012 0)
(2.75743 -1.42909e-011 0)
(6.42151 -7.29843e-012 0)
(13.1871 -1.669e-012 0)
(23.8784 3.77984e-012 0)
(38.2679 2.58808e-012 0)
(55.3626 2.67473e-013 0)
(73.586 -9.90901e-013 0)
(92.132 -1.23136e-012 0)
(110.314 9.56739e-012 0)
(128.152 3.22055e-012 0)
(145.228 6.23453e-012 0)
(161.783 9.11996e-013 0)
(177.635 -8.266e-013 0)
(192.538 4.99925e-013 0)
(206.773 -2.93586e-012 0)
(220 -3.35858e-012 0)
(232.228 -2.6044e-012 0)
(243.524 -2.69218e-012 0)
(253.571 -1.7727e-011 0)
(262.347 3.18905e-010 0)
(269.963 -3.17001e-009 0)
(276.253 5.25816e-008 0)
(281.398 -2.28846e-007 0)
(285.472 3.63819e-006 0)
(288.371 -5.54995e-006 0)
(290.071 0.00012433 0)
(290.989 0.000515313 0)
(291.739 0.00508673 0)
(292.262 0.00889834 0)
(292.519 0.014961 0)
(292.739 0.0206231 0)
(293.015 0.0246892 0)
(293.313 0.0272368 0)
(293.578 0.030261 0)
(293.728 0.0337708 0)
(293.696 0.0365901 0)
(293.514 0.0392776 0)
(293.249 0.0310777 0)
(292.938 0.0327572 0)
(292.633 0.0443618 0)
(292.387 0.0622482 0)
(292.218 0.0964372 0)
(292.122 0.116949 0)
(292.079 0.130042 0)
(292.059 0.154958 0)
(292.037 0.17282 0)
(291.99 0.175678 0)
(291.918 0.188019 0)
(291.836 0.200995 0)
(291.736 0.240704 0)
(291.599 0.233044 0)
(7.8549e-006 -2.87293e-013 0)
(5.23147e-005 -1.47955e-011 0)
(0.000276155 1.60455e-011 0)
(0.00138037 -1.60056e-011 0)
(0.00626376 -1.1118e-011 0)
(0.0264015 -7.76956e-012 0)
(0.100797 -2.42572e-015 0)
(0.346336 7.31195e-012 0)
(1.04203 -1.46468e-012 0)
(2.75743 -1.35514e-011 0)
(6.42151 -3.91526e-012 0)
(13.1871 5.78163e-013 0)
(23.8784 7.1699e-012 0)
(38.2679 1.73379e-012 0)
(55.3626 -4.71546e-013 0)
(73.586 -2.05823e-012 0)
(92.132 1.83439e-012 0)
(110.314 6.52341e-012 0)
(128.152 2.61633e-012 0)
(145.228 5.28533e-012 0)
(161.783 -1.37006e-012 0)
(177.635 -5.88107e-013 0)
(192.538 1.24701e-013 0)
(206.773 -4.04503e-012 0)
(220 -3.19006e-012 0)
(232.228 -1.51993e-012 0)
(243.524 -2.53598e-012 0)
(253.571 -1.61794e-011 0)
(262.347 3.02909e-010 0)
(269.963 -3.01393e-009 0)
(276.253 5.03053e-008 0)
(281.398 -2.1969e-007 0)
(285.472 3.52617e-006 0)
(288.371 -5.51433e-006 0)
(290.071 0.000123186 0)
(290.99 0.000497468 0)
(291.739 0.00521276 0)
(292.262 0.00960378 0)
(292.519 0.015641 0)
(292.739 0.0210833 0)
(293.016 0.0257356 0)
(293.313 0.0281551 0)
(293.578 0.0320074 0)
(293.728 0.0358021 0)
(293.696 0.0401712 0)
(293.513 0.0424021 0)
(293.248 0.0361212 0)
(292.938 0.0388993 0)
(292.635 0.0525846 0)
(292.39 0.0778297 0)
(292.221 0.0948515 0)
(292.124 0.124297 0)
(292.081 0.143288 0)
(292.062 0.162185 0)
(292.038 0.187371 0)
(291.991 0.215053 0)
(291.92 0.217639 0)
(291.84 0.232789 0)
(291.737 0.278969 0)
(291.595 0.24516 0)
(7.8549e-006 -5.08348e-012 0)
(5.23147e-005 -1.24559e-011 0)
(0.000276155 1.63062e-011 0)
(0.00138037 -1.58163e-011 0)
(0.00626376 -1.12404e-011 0)
(0.0264015 -7.95694e-012 0)
(0.100797 -1.8365e-013 0)
(0.346336 4.34644e-012 0)
(1.04203 -2.10647e-012 0)
(2.75743 -1.62003e-011 0)
(6.42151 -8.07494e-012 0)
(13.1871 -4.79212e-012 0)
(23.8784 1.06368e-011 0)
(38.2679 2.01648e-012 0)
(55.3626 -5.86947e-012 0)
(73.586 -1.66911e-012 0)
(92.132 3.97661e-012 0)
(110.314 1.21614e-011 0)
(128.152 -9.07725e-013 0)
(145.228 3.5147e-012 0)
(161.783 -4.60349e-012 0)
(177.635 -1.16498e-012 0)
(192.538 -2.31517e-012 0)
(206.773 -1.36029e-012 0)
(220 -2.6926e-012 0)
(232.228 -1.61175e-012 0)
(243.524 -5.34615e-013 0)
(253.571 -1.66555e-011 0)
(262.347 2.80227e-010 0)
(269.963 -2.8233e-009 0)
(276.253 4.74134e-008 0)
(281.398 -2.0777e-007 0)
(285.472 3.36771e-006 0)
(288.371 -5.37245e-006 0)
(290.071 0.000120187 0)
(290.99 0.000476304 0)
(291.74 0.00524987 0)
(292.263 0.0102833 0)
(292.52 0.0163659 0)
(292.74 0.0218089 0)
(293.016 0.0269174 0)
(293.313 0.0290539 0)
(293.578 0.0333021 0)
(293.728 0.0371025 0)
(293.696 0.0430317 0)
(293.513 0.0466638 0)
(293.248 0.043603 0)
(292.939 0.0485154 0)
(292.637 0.0621485 0)
(292.391 0.0887894 0)
(292.223 0.0980928 0)
(292.127 0.13386 0)
(292.083 0.163039 0)
(292.064 0.177242 0)
(292.043 0.199221 0)
(291.994 0.243262 0)
(291.92 0.247998 0)
(291.844 0.250416 0)
(291.737 0.297886 0)
(291.59 0.272709 0)
(7.8549e-006 -3.58122e-012 0)
(5.23147e-005 -1.42722e-011 0)
(0.000276155 1.58315e-011 0)
(0.00138037 -1.39938e-011 0)
(0.00626376 -1.4612e-011 0)
(0.0264015 -6.04651e-012 0)
(0.100797 -2.72584e-012 0)
(0.346336 5.18713e-012 0)
(1.04203 1.95976e-013 0)
(2.75743 -1.58583e-011 0)
(6.42151 -5.70304e-012 0)
(13.1871 -2.11482e-012 0)
(23.8784 1.03071e-011 0)
(38.2679 8.54285e-013 0)
(55.3626 -2.71642e-012 0)
(73.586 -4.74935e-013 0)
(92.132 1.47336e-012 0)
(110.314 5.89375e-012 0)
(128.152 3.73768e-012 0)
(145.228 6.88869e-012 0)
(161.783 -1.74903e-012 0)
(177.635 -1.73178e-012 0)
(192.538 -1.89333e-012 0)
(206.773 -1.93146e-012 0)
(220 -3.6199e-012 0)
(232.228 -7.54847e-013 0)
(243.524 -1.50404e-012 0)
(253.571 -1.49614e-011 0)
(262.347 2.56612e-010 0)
(269.963 -2.60602e-009 0)
(276.253 4.41433e-008 0)
(281.398 -1.94035e-007 0)
(285.472 3.17755e-006 0)
(288.371 -5.14188e-006 0)
(290.071 0.000115709 0)
(290.99 0.000453595 0)
(291.74 0.00520509 0)
(292.263 0.0109527 0)
(292.52 0.0171039 0)
(292.74 0.0228858 0)
(293.016 0.0284271 0)
(293.313 0.0308372 0)
(293.578 0.0341957 0)
(293.728 0.037667 0)
(293.696 0.0454256 0)
(293.513 0.0502041 0)
(293.248 0.0508375 0)
(292.94 0.0574385 0)
(292.639 0.0721327 0)
(292.393 0.0970613 0)
(292.225 0.115459 0)
(292.131 0.147623 0)
(292.086 0.183435 0)
(292.066 0.205257 0)
(292.046 0.219131 0)
(291.997 0.237837 0)
(291.921 0.255791 0)
(291.847 0.273595 0)
(291.74 0.299407 0)
(291.587 0.305127 0)
(7.8549e-006 -6.93167e-012 0)
(5.23147e-005 -1.11672e-011 0)
(0.000276155 1.2833e-011 0)
(0.00138037 -9.718e-012 0)
(0.00626376 -1.76667e-011 0)
(0.0264015 -8.2611e-012 0)
(0.100797 -1.8781e-012 0)
(0.346336 2.8336e-012 0)
(1.04203 -1.2831e-012 0)
(2.75743 -1.67363e-011 0)
(6.42151 -7.61148e-012 0)
(13.1871 -4.76602e-012 0)
(23.8784 1.21375e-011 0)
(38.2679 7.60359e-013 0)
(55.3626 -3.88141e-012 0)
(73.586 -6.58921e-012 0)
(92.132 3.27804e-012 0)
(110.314 9.49854e-012 0)
(128.152 2.83007e-012 0)
(145.228 6.72528e-012 0)
(161.783 -2.77467e-012 0)
(177.635 -1.63773e-012 0)
(192.538 -1.7964e-012 0)
(206.773 5.30924e-013 0)
(220 -3.70875e-013 0)
(232.228 -1.56514e-012 0)
(243.524 -8.12553e-013 0)
(253.571 -1.32314e-011 0)
(262.347 2.3349e-010 0)
(269.963 -2.37826e-009 0)
(276.253 4.06801e-008 0)
(281.398 -1.79294e-007 0)
(285.472 2.96829e-006 0)
(288.371 -4.84256e-006 0)
(290.071 0.00011013 0)
(290.99 0.000430473 0)
(291.74 0.00508874 0)
(292.264 0.0116195 0)
(292.521 0.0177505 0)
(292.741 0.0242636 0)
(293.016 0.0301958 0)
(293.313 0.033526 0)
(293.578 0.0347908 0)
(293.729 0.0376925 0)
(293.696 0.04698 0)
(293.513 0.0531966 0)
(293.248 0.058925 0)
(292.941 0.069472 0)
(292.641 0.0864685 0)
(292.395 0.104945 0)
(292.228 0.134059 0)
(292.134 0.149073 0)
(292.089 0.195977 0)
(292.068 0.223095 0)
(292.047 0.230805 0)
(291.998 0.24319 0)
(291.925 0.270537 0)
(291.85 0.309928 0)
(291.742 0.305866 0)
(291.586 0.327406 0)
(7.8549e-006 -4.66321e-012 0)
(5.23147e-005 -1.54788e-011 0)
(0.000276155 1.42201e-011 0)
(0.00138037 -8.91347e-012 0)
(0.00626376 -1.78515e-011 0)
(0.0264015 -8.15131e-012 0)
(0.100797 -1.34292e-012 0)
(0.346336 2.8412e-012 0)
(1.04203 1.74557e-012 0)
(2.75743 -1.48081e-011 0)
(6.42151 -5.63866e-012 0)
(13.1871 -2.24733e-012 0)
(23.8784 1.03682e-011 0)
(38.2679 6.42307e-013 0)
(55.3626 1.32468e-012 0)
(73.586 -6.12684e-012 0)
(92.132 1.60677e-012 0)
(110.314 4.88559e-012 0)
(128.152 5.58194e-012 0)
(145.228 9.0975e-012 0)
(161.783 -1.19828e-012 0)
(177.635 -2.85136e-012 0)
(192.538 -2.84007e-012 0)
(206.773 -1.0251e-013 0)
(220 -2.94813e-012 0)
(232.228 -2.32677e-012 0)
(243.524 -1.09811e-012 0)
(253.571 -1.30996e-011 0)
(262.347 2.09308e-010 0)
(269.963 -2.14885e-009 0)
(276.253 3.71798e-008 0)
(281.398 -1.64175e-007 0)
(285.472 2.75016e-006 0)
(288.371 -4.49398e-006 0)
(290.071 0.000103799 0)
(290.99 0.000407624 0)
(291.741 0.00491311 0)
(292.264 0.0122688 0)
(292.521 0.0182496 0)
(292.741 0.0257447 0)
(293.017 0.03196 0)
(293.313 0.0362386 0)
(293.578 0.0356452 0)
(293.729 0.0377092 0)
(293.697 0.0471844 0)
(293.513 0.0567656 0)
(293.249 0.0693219 0)
(292.942 0.0853262 0)
(292.642 0.100069 0)
(292.397 0.11005 0)
(292.23 0.139187 0)
(292.137 0.149551 0)
(292.093 0.204148 0)
(292.069 0.240588 0)
(292.048 0.239114 0)
(292.001 0.26044 0)
(291.929 0.305953 0)
(291.851 0.342718 0)
(291.742 0.332758 0)
(291.588 0.341073 0)
(7.8549e-006 -6.47796e-012 0)
(5.23147e-005 -1.32831e-011 0)
(0.000276155 1.03589e-011 0)
(0.00138037 -4.92442e-012 0)
(0.00626376 -1.77036e-011 0)
(0.0264015 -1.01655e-011 0)
(0.100797 -1.06726e-012 0)
(0.346336 5.82762e-013 0)
(1.04203 -1.74393e-012 0)
(2.75743 -1.40943e-011 0)
(6.42151 -5.1256e-012 0)
(13.1871 -6.07965e-012 0)
(23.8784 9.5989e-012 0)
(38.2679 3.83034e-012 0)
(55.3626 -4.80544e-013 0)
(73.586 -3.14059e-012 0)
(92.132 5.98755e-013 0)
(110.314 1.13411e-011 0)
(128.152 3.45095e-012 0)
(145.228 5.91182e-012 0)
(161.783 -3.6262e-012 0)
(177.635 -3.08825e-012 0)
(192.538 -3.49032e-012 0)
(206.773 -1.45606e-012 0)
(220 -2.23625e-012 0)
(232.228 -1.44823e-012 0)
(243.524 3.57212e-013 0)
(253.571 -1.03667e-011 0)
(262.347 1.8603e-010 0)
(269.963 -1.92589e-009 0)
(276.253 3.37505e-008 0)
(281.398 -1.49176e-007 0)
(285.472 2.5311e-006 0)
(288.371 -4.11285e-006 0)
(290.071 9.70145e-005 0)
(290.99 0.000385501 0)
(291.741 0.00469103 0)
(292.265 0.0128649 0)
(292.522 0.0186969 0)
(292.742 0.0270442 0)
(293.017 0.0335337 0)
(293.314 0.0385977 0)
(293.578 0.0369011 0)
(293.729 0.0383045 0)
(293.697 0.0478295 0)
(293.514 0.0596695 0)
(293.25 0.0768138 0)
(292.943 0.0932294 0)
(292.643 0.104762 0)
(292.399 0.117688 0)
(292.231 0.143938 0)
(292.14 0.168385 0)
(292.098 0.212291 0)
(292.071 0.253263 0)
(292.049 0.254526 0)
(292.006 0.271755 0)
(291.934 0.346231 0)
(291.853 0.371891 0)
(291.742 0.355657 0)
(291.585 0.375639 0)
(7.8549e-006 -7.45885e-012 0)
(5.23147e-005 -1.68107e-011 0)
(0.000276155 1.079e-011 0)
(0.00138037 -5.01658e-012 0)
(0.00626376 -1.61135e-011 0)
(0.0264015 -8.55031e-012 0)
(0.100797 -3.13999e-012 0)
(0.346336 1.24324e-012 0)
(1.04203 5.12326e-013 0)
(2.75743 -1.28206e-011 0)
(6.42151 -7.35408e-012 0)
(13.1871 -5.09278e-012 0)
(23.8784 7.98038e-012 0)
(38.2679 1.43169e-012 0)
(55.3626 -8.44984e-013 0)
(73.586 -4.71468e-012 0)
(92.132 4.89053e-012 0)
(110.314 6.0462e-012 0)
(128.152 6.42736e-012 0)
(145.228 5.96536e-012 0)
(161.783 -3.08233e-013 0)
(177.635 -2.15947e-012 0)
(192.538 -4.04935e-012 0)
(206.773 -5.95753e-013 0)
(220 -1.11961e-012 0)
(232.228 -1.20854e-012 0)
(243.524 1.32824e-012 0)
(253.571 -8.88975e-012 0)
(262.347 1.65008e-010 0)
(269.963 -1.71049e-009 0)
(276.253 3.04777e-008 0)
(281.398 -1.34664e-007 0)
(285.472 2.31705e-006 0)
(288.371 -3.71414e-006 0)
(290.071 9.00293e-005 0)
(290.991 0.0003643 0)
(291.742 0.00443523 0)
(292.265 0.0133767 0)
(292.522 0.0192044 0)
(292.742 0.028039 0)
(293.018 0.0348423 0)
(293.314 0.0406979 0)
(293.578 0.0384663 0)
(293.73 0.0396996 0)
(293.698 0.0500147 0)
(293.515 0.0623214 0)
(293.251 0.0816943 0)
(292.944 0.0959992 0)
(292.643 0.107004 0)
(292.401 0.127342 0)
(292.234 0.15061 0)
(292.144 0.181942 0)
(292.102 0.212185 0)
(292.074 0.261741 0)
(292.05 0.285171 0)
(292.012 0.301703 0)
(291.94 0.371081 0)
(291.852 0.380605 0)
(291.743 0.370172 0)
(291.588 0.415441 0)
(7.8549e-006 -7.79356e-012 0)
(5.23147e-005 -1.26173e-011 0)
(0.000276155 7.86633e-012 0)
(0.00138037 -3.9424e-012 0)
(0.00626376 -1.59094e-011 0)
(0.0264015 -9.80709e-012 0)
(0.100797 -3.37236e-012 0)
(0.346336 -5.163e-013 0)
(1.04203 -1.17734e-012 0)
(2.75743 -1.12452e-011 0)
(6.42151 -8.4997e-012 0)
(13.1871 -8.87473e-012 0)
(23.8784 7.57132e-012 0)
(38.2679 2.19124e-012 0)
(55.3626 -3.3388e-012 0)
(73.586 -4.24888e-012 0)
(92.132 4.66511e-012 0)
(110.314 8.31759e-012 0)
(128.152 8.19601e-013 0)
(145.228 3.49256e-012 0)
(161.783 -2.59111e-012 0)
(177.635 -6.16528e-013 0)
(192.538 -3.48873e-012 0)
(206.773 -2.41087e-012 0)
(220 2.33458e-013 0)
(232.228 1.03014e-012 0)
(243.524 -3.03787e-013 0)
(253.571 -7.48926e-012 0)
(262.347 1.41995e-010 0)
(269.963 -1.51212e-009 0)
(276.253 2.74111e-008 0)
(281.398 -1.20907e-007 0)
(285.472 2.11225e-006 0)
(288.371 -3.30981e-006 0)
(290.071 8.30382e-005 0)
(290.991 0.000344246 0)
(291.742 0.00415579 0)
(292.266 0.0137928 0)
(292.523 0.0197446 0)
(292.743 0.0288842 0)
(293.018 0.0359826 0)
(293.314 0.0426157 0)
(293.578 0.0402439 0)
(293.73 0.0415633 0)
(293.699 0.0527972 0)
(293.516 0.0658105 0)
(293.252 0.0834057 0)
(292.945 0.097061 0)
(292.645 0.109291 0)
(292.403 0.135331 0)
(292.236 0.155734 0)
(292.146 0.193709 0)
(292.106 0.209483 0)
(292.078 0.268824 0)
(292.053 0.320764 0)
(292.015 0.344034 0)
(291.943 0.379021 0)
(291.853 0.383731 0)
(291.746 0.418988 0)
(291.591 0.431534 0)
(7.8549e-006 -8.217e-012 0)
(5.23147e-005 -1.56154e-011 0)
(0.000276155 9.24589e-012 0)
(0.00138037 -4.65157e-012 0)
(0.00626376 -1.5481e-011 0)
(0.0264015 -8.02163e-012 0)
(0.100797 -4.0873e-012 0)
(0.346336 4.89726e-013 0)
(1.04203 -1.9071e-012 0)
(2.75743 -1.16174e-011 0)
(6.42151 -1.15239e-011 0)
(13.1871 -5.6654e-012 0)
(23.8784 5.05047e-012 0)
(38.2679 2.8635e-012 0)
(55.3626 -2.25437e-012 0)
(73.586 -1.56343e-012 0)
(92.132 8.08667e-013 0)
(110.314 8.28701e-012 0)
(128.152 2.80545e-012 0)
(145.228 4.77321e-012 0)
(161.783 -1.86443e-012 0)
(177.635 -3.8196e-012 0)
(192.538 -4.87741e-012 0)
(206.773 -1.86051e-012 0)
(220 -7.23664e-013 0)
(232.228 -1.20921e-012 0)
(243.524 1.81466e-013 0)
(253.571 -5.81165e-012 0)
(262.347 1.24947e-010 0)
(269.963 -1.32592e-009 0)
(276.253 2.45943e-008 0)
(281.398 -1.08076e-007 0)
(285.472 1.9195e-006 0)
(288.371 -2.90874e-006 0)
(290.071 7.61832e-005 0)
(290.991 0.000325535 0)
(291.742 0.00386219 0)
(292.266 0.0141037 0)
(292.523 0.0202838 0)
(292.743 0.0297147 0)
(293.019 0.0370012 0)
(293.314 0.0441278 0)
(293.578 0.0424147 0)
(293.73 0.0439046 0)
(293.699 0.0557523 0)
(293.517 0.0685156 0)
(293.253 0.0821283 0)
(292.945 0.0971623 0)
(292.646 0.114145 0)
(292.404 0.144121 0)
(292.239 0.165516 0)
(292.148 0.201199 0)
(292.108 0.217494 0)
(292.084 0.27267 0)
(292.058 0.345102 0)
(292.018 0.376023 0)
(291.944 0.382586 0)
(291.857 0.408247 0)
(291.748 0.451807 0)
(291.588 0.455945 0)
(7.8549e-006 -7.13627e-012 0)
(5.23147e-005 -1.08909e-011 0)
(0.000276155 3.87501e-012 0)
(0.00138037 -4.52399e-012 0)
(0.00626376 -1.46498e-011 0)
(0.0264015 -7.53503e-012 0)
(0.100797 -2.42623e-012 0)
(0.346336 -1.56119e-012 0)
(1.04203 -7.60459e-013 0)
(2.75743 -1.14745e-011 0)
(6.42151 -9.19423e-012 0)
(13.1871 -9.21786e-012 0)
(23.8784 7.35115e-012 0)
(38.2679 3.24443e-014 0)
(55.3626 -6.80407e-013 0)
(73.586 -4.24517e-012 0)
(92.132 4.82423e-012 0)
(110.314 7.07576e-012 0)
(128.152 1.0506e-012 0)
(145.228 3.23716e-012 0)
(161.783 -3.77924e-012 0)
(177.635 -3.53266e-012 0)
(192.538 -5.1564e-012 0)
(206.773 -2.8023e-012 0)
(220 -1.90233e-012 0)
(232.228 -3.12272e-013 0)
(243.524 -4.76068e-013 0)
(253.571 -6.71315e-012 0)
(262.347 1.06047e-010 0)
(269.963 -1.15928e-009 0)
(276.253 2.20339e-008 0)
(281.398 -9.62769e-008 0)
(285.472 1.74045e-006 0)
(288.371 -2.51811e-006 0)
(290.071 6.95661e-005 0)
(290.991 0.000308258 0)
(291.743 0.00356279 0)
(292.267 0.0142988 0)
(292.524 0.0208473 0)
(292.744 0.0305315 0)
(293.019 0.0379696 0)
(293.314 0.0451538 0)
(293.578 0.0448795 0)
(293.73 0.0466438 0)
(293.7 0.0586078 0)
(293.517 0.0707052 0)
(293.254 0.0834358 0)
(292.947 0.0974701 0)
(292.648 0.121466 0)
(292.406 0.147167 0)
(292.241 0.175708 0)
(292.15 0.205918 0)
(292.112 0.240808 0)