/*--------------------------------*- C++ -*----------------------------------*\
| =========                 |                                                 |
| \\      /  F ield         | OpenFOAM: The Open Source CFD Toolbox           |
|  \\    /   O peration     | Version:  5.x                                   |
|   \\  /    A nd           | Web:      www.OpenFOAM.org                      |
|    \\/     M anipulation  |                                                 |
\*---------------------------------------------------------------------------*/
/*   Windows 32 and 64 bit porting by blueCAPE: http://www.bluecape.com.pt   *\
|  Based on Windows porting (2.0.x v4) by Symscape: http://www.symscape.com   |
\*---------------------------------------------------------------------------*/
FoamFile
{
    version     2.0;
    format      ascii;
    class       volScalarField;
    location    "0.0095";
    object      mag(U);
}
// * * * * * * * * * * * * * * * * * * * * * * * * * * * * * * * * * * * * * //

dimensions      [0 1 -1 0 0 0 0];

internalField   nonuniform List<scalar> 
100
(
26.4606
89.4168
169.985
227.238
258.722
270.984
26.4604
89.4182
169.98
227.304
258.68
270.784
26.4601
89.4197
169.975
227.382
258.634
270.633
26.46
89.4209
169.971
227.451
258.6
270.655
26.4598
89.4218
169.968
227.509
258.58
270.906
26.4595
89.4238
169.961
227.628
258.464
278.581
26.4586
89.4293
169.942
227.797
258.343
277.636
26.4564
89.4417
169.911
228.022
258.534
277.117
26.4503
89.4633
169.808
228.248
258.942
276.956
26.4425
89.4753
169.677
228.17
258.945
276.709
287.659
297.589
286.93
298.39
286.322
298.946
285.958
298.316
285.532
297.473
128.235
159.549
149.941
248.507
259.892
212.189
331.945
337.75
274.574
354.501
359.377
294.978
348.96
354.639
293.945
307.049
332.179
286.793
307.638
330.75
281.18
308.85
329.514
280.619
307.526
327.301
282.685
306.174
324.973
281.509
)
;

boundaryField
{
    inlet
    {
        type            calculated;
        value           nonuniform List<scalar> 10(26.4595 26.4586 26.4564 26.4503 26.4425 26.4606 26.4604 26.4601 26.46 26.4598);
    }
    outlet
    {
        type            calculated;
        value           nonuniform List<scalar> 10(286.793 281.18 280.619 282.685 281.509 149.941 212.189 274.574 294.978 293.945);
    }
    bottom
    {
        type            symmetryPlane;
    }
    top
    {
        type            symmetryPlane;
    }
    obstacle
    {
        type            calculated;
        value           nonuniform List<scalar> 
12
(
270.984
270.784
270.633
270.655
270.906
128.235
248.507
331.945
354.501
348.96
287.659
297.589
)
;
    }
    defaultFaces
    {
        type            empty;
    }
}


// ************************************************************************* //
