/*--------------------------------*- C++ -*----------------------------------*\
| =========                 |                                                 |
| \\      /  F ield         | OpenFOAM: The Open Source CFD Toolbox           |
|  \\    /   O peration     | Version:  5.x                                   |
|   \\  /    A nd           | Web:      www.OpenFOAM.org                      |
|    \\/     M anipulation  |                                                 |
\*---------------------------------------------------------------------------*/
/*   Windows 32 and 64 bit porting by blueCAPE: http://www.bluecape.com.pt   *\
|  Based on Windows porting (2.0.x v4) by Symscape: http://www.symscape.com   |
\*---------------------------------------------------------------------------*/
FoamFile
{
    version     2.0;
    format      ascii;
    class       volScalarField;
    location    "0.0095";
    object      p;
}
// * * * * * * * * * * * * * * * * * * * * * * * * * * * * * * * * * * * * * //

dimensions      [1 -1 -2 0 0 0 0];

internalField   nonuniform List<scalar> 
100
(
86188
70173.4
50547.7
39934
33838.3
31425.3
86188
70173.5
50547.1
39938.1
33800.5
31488.9
86188
70173.6
50546.6
39942.1
33754.8
31555.3
86188
70173.7
50546.2
39945.2
33715.3
31617.7
86188
70173.7
50545.9
39947.4
33685.7
31665.1
86187.9
70173.8
50545.2
39952.1
33611.2
31802.4
86187.9
70174.2
50543.7
39964.1
33499.4
31936.4
86187.7
70174.7
50541.9
39959.8
33418.5
32043.8
86187.2
70177
50520.5
39933.6
33329.2
31968.6
86186.7
70187.7
50509.2
39964.4
33264.5
31827.6
29888.5
28962.8
30270.3
29173.7
30563.7
29378.2
30504.2
29391.6
30284
29219.2
28368.7
28409.6
28757.9
28431.8
28508.8
28691.1
28467.7
28548.3
28687.2
28446.2
28550.5
28657.8
28463.2
28587.1
28656.3
28416.9
28605.4
28608.3
28366.1
28571.9
28511.2
28186.3
28374.2
28511.8
28006.1
28010.6
27614
27853.5
27792.8
26964.8
)
;

boundaryField
{
    inlet
    {
        type            zeroGradient;
    }
    outlet
    {
        type            zeroGradient;
    }
    bottom
    {
        type            symmetryPlane;
    }
    top
    {
        type            symmetryPlane;
    }
    obstacle
    {
        type            zeroGradient;
    }
    defaultFaces
    {
        type            empty;
    }
}


// ************************************************************************* //
