/*--------------------------------*- C++ -*----------------------------------*\
| =========                 |                                                 |
| \\      /  F ield         | OpenFOAM: The Open Source CFD Toolbox           |
|  \\    /   O peration     | Version:  5.x                                   |
|   \\  /    A nd           | Web:      www.OpenFOAM.org                      |
|    \\/     M anipulation  |                                                 |
\*---------------------------------------------------------------------------*/
/*   Windows 32 and 64 bit porting by blueCAPE: http://www.bluecape.com.pt   *\
|  Based on Windows porting (2.0.x v4) by Symscape: http://www.symscape.com   |
\*---------------------------------------------------------------------------*/
FoamFile
{
    version     2.0;
    format      ascii;
    class       surfaceScalarField;
    location    "0.0095";
    object      phi;
}
// * * * * * * * * * * * * * * * * * * * * * * * * * * * * * * * * * * * * * //

dimensions      [1 0 -1 0 0 0 0];

internalField   nonuniform List<scalar> 
174
(
14.9925
0.0047692
21.498
-0.0255843
24.4596
0.0843732
22.7008
-0.0834929
19.1903
0.725662
-0.113441
10.0262
0.00781523
14.3764
-0.0421993
16.3612
0.135586
15.1739
-0.13408
12.8388
1.21955
-0.163864
6.705
0.00974988
9.61394
-0.0529644
10.9446
0.166064
10.1419
-0.162477
8.59257
1.55636
-0.193744
4.48394
0.0109894
6.42916
-0.0599769
7.32073
0.184496
6.77975
-0.179282
5.75774
1.78205
-0.228041
2.99861
0.0117934
4.2994
-0.0645773
4.89625
0.196042
4.53404
-0.19144
3.8631
1.93163
-0.281242
12.7275
0.0148989
18.2483
-0.0835355
20.7909
0.234892
19.2138
-0.216805
17.5727
1.46025
0.194484
15.7329
22.634
0.0190866
32.449
-0.113567
36.9956
0.277855
34.1294
-0.244118
31.1493
0.8863
0.584611
28.3189
40.2536
0.0213717
57.6987
-0.154168
65.8415
0.280059
60.6754
-0.409041
55.2322
0.449399
0.532483
50.5325
71.5923
0.0154908
102.562
-0.133828
117.141
0.135546
107.901
-0.444714
97.7856
0.00656247
0.066207
89.1184
127.306
182.292
208.237
191.819
173.114
157.001
15.3996
-0.0220581
-0.0114812
15.0698
27.5392
0.0571523
0.0255977
26.9121
48.9806
0.126311
0.121087
47.9156
86.3003
0.0262113
0.027481
84.3373
151.903
148.39
6.78327
-0.153895
8.01288
-0.923661
-1.05343
8.05998
-0.024566
7.97086
-0.560426
-0.882733
6.80109
0.0870369
6.69484
-0.284798
-0.510417
4.84156
0.19428
4.81725
-0.165547
-0.223002
3.27293
0.28635
3.24342
-0.086752
-0.0886062
14.5381
0.24001
13.5156
-0.277259
0.0428143
25.9329
0.172043
23.8515
-0.684446
0.345366
46.1382
0.171967
41.7807
-0.467761
-0.849604
82.5068
0.0113074
78.1317
-0.647676
-3.1402
144.914
136.753
)
;

boundaryField
{
    inlet
    {
        type            calculated;
        value           nonuniform List<scalar> 10(-3.86341 -6.86997 -12.2157 -21.7178 -38.6088 -4.55138 -3.04367 -2.03541 -1.36115 -0.91025);
    }
    outlet
    {
        type            calculated;
        value           nonuniform List<scalar> 10(11.3087 19.8165 35.2864 61.7869 107.658 7.30935 6.64953 5.54169 4.00859 2.7037);
    }
    bottom
    {
        type            symmetryPlane;
        value           uniform 0;
    }
    top
    {
        type            symmetryPlane;
        value           uniform 0;
    }
    obstacle
    {
        type            calculated;
        value           nonuniform List<scalar> 
12
(
17.7135
11.8536
7.93394
5.31625
3.56624
-6.52852
-8.09817
-6.86501
-4.9165
-3.33354
0.0147324
-0.0163002
)
;
    }
    defaultFaces
    {
        type            empty;
        value           nonuniform 0();
    }
}


// ************************************************************************* //
