/*--------------------------------*- C++ -*----------------------------------*\
| =========                 |                                                 |
| \\      /  F ield         | OpenFOAM: The Open Source CFD Toolbox           |
|  \\    /   O peration     | Version:  5.x                                   |
|   \\  /    A nd           | Web:      www.OpenFOAM.org                      |
|    \\/     M anipulation  |                                                 |
\*---------------------------------------------------------------------------*/
/*   Windows 32 and 64 bit porting by blueCAPE: http://www.bluecape.com.pt   *\
|  Based on Windows porting (2.0.x v4) by Symscape: http://www.symscape.com   |
\*---------------------------------------------------------------------------*/
FoamFile
{
    version     2.0;
    format      ascii;
    class       volScalarField;
    location    "0.0095";
    object      T;
}
// * * * * * * * * * * * * * * * * * * * * * * * * * * * * * * * * * * * * * //

dimensions      [0 0 0 1 0 0 0];

internalField   nonuniform List<scalar> 
100
(
332.475
320.624
273.524
274.566
282.236
319.431
332.475
320.624
273.52
274.566
282.213
319.632
332.475
320.624
273.515
274.565
282.173
319.85
332.475
320.624
273.511
274.577
282.071
319.879
332.475
320.623
273.505
274.62
281.808
319.663
332.475
320.623
273.497
274.633
282.19
297.107
332.475
320.622
273.487
274.643
282.124
297.636
332.475
320.62
273.474
274.606
282.183
298.815
332.475
320.615
273.451
274.476
282.285
299.555
332.475
320.622
273.459
274.465
282.284
299.623
316.178
322.604
317.255
325.534
320.127
328.158
321.544
330.055
321.686
330.312
369.886
367.322
391.973
387.774
384.428
406.913
409.124
403.772
422.451
407.678
400.592
419.153
396.034
389.161
414.111
334.807
362.058
409.309
333.154
362.39
405.858
334.383
362.664
404.52
335.264
361.242
400.736
335.498
360.59
397.715
)
;

boundaryField
{
    inlet
    {
        type            zeroGradient;
    }
    outlet
    {
        type            zeroGradient;
    }
    bottom
    {
        type            symmetryPlane;
    }
    top
    {
        type            symmetryPlane;
    }
    obstacle
    {
        type            zeroGradient;
    }
    defaultFaces
    {
        type            empty;
    }
}


// ************************************************************************* //
