/*--------------------------------*- C++ -*----------------------------------*\
| =========                 |                                                 |
| \\      /  F ield         | OpenFOAM: The Open Source CFD Toolbox           |
|  \\    /   O peration     | Version:  5.x                                   |
|   \\  /    A nd           | Web:      www.OpenFOAM.org                      |
|    \\/     M anipulation  |                                                 |
\*---------------------------------------------------------------------------*/
/*   Windows 32 and 64 bit porting by blueCAPE: http://www.bluecape.com.pt   *\
|  Based on Windows porting (2.0.x v4) by Symscape: http://www.symscape.com   |
\*---------------------------------------------------------------------------*/
FoamFile
{
    version     2.0;
    format      ascii;
    class       volVectorField;
    location    "0.0095";
    object      U;
}
// * * * * * * * * * * * * * * * * * * * * * * * * * * * * * * * * * * * * * //

dimensions      [0 1 -1 0 0 0 0];

internalField   nonuniform List<vector> 
100
(
(26.4606 0.000552594 0)
(89.4168 -0.00483739 0)
(169.985 0.0264558 0)
(227.238 -0.0453363 0)
(258.721 0.642409 0)
(270.984 -0.152911 0)
(26.4604 0.00145222 0)
(89.4182 -0.0127732 0)
(169.98 0.0682214 0)
(227.304 -0.117269 0)
(258.674 1.71624 0)
(270.784 -0.446979 0)
(26.4601 0.00202082 0)
(89.4197 -0.0178893 0)
(169.975 0.0928577 0)
(227.382 -0.160015 0)
(258.622 2.50239 0)
(270.633 -0.552365 0)
(26.46 0.00238429 0)
(89.4209 -0.0212169 0)
(169.971 0.107683 0)
(227.45 -0.182639 0)
(258.582 2.98616 0)
(270.654 -0.560557 0)
(26.4598 0.00261942 0)
(89.4218 -0.0233999 0)
(169.968 0.116924 0)
(227.509 -0.199298 0)
(258.557 3.45877 0)
(270.904 -0.871576 0)
(26.4595 0.0030844 0)
(89.4238 -0.0279045 0)
(169.961 0.13277 0)
(227.628 -0.227097 0)
(258.445 3.13438 0)
(278.581 -0.0438021 0)
(26.4586 0.00396836 0)
(89.4292 -0.0367668 0)
(169.942 0.167113 0)
(227.797 -0.213279 0)
(258.336 1.97344 0)
(277.633 1.36165 0)
(26.4564 0.00503677 0)
(89.4416 -0.0553896 0)
(169.911 0.188325 0)
(228.022 -0.388697 0)
(258.532 1.19414 0)
(277.11 1.91379 0)
(26.4503 0.00452349 0)
(89.4632 -0.0606322 0)
(169.808 0.12064 0)
(228.247 -0.562231 0)
(258.941 0.152118 0)
(276.955 0.4556 0)
(26.4425 0.001727 0)
(89.4753 -0.0262337 0)
(169.677 0.0269997 0)
(228.17 -0.26087 0)
(258.945 -0.22937 0)
(276.708 -0.293834 0)
(287.659 -0.229721 0)
(297.589 0.179661 0)
(286.93 -0.0823326 0)
(298.39 -0.601057 0)
(286.316 1.83052 0)
(298.94 1.89945 0)
(285.958 0.616882 0)
(298.315 0.674793 0)
(285.532 -0.259845 0)
(297.473 -0.288651 0)
(128.079 -6.3249 0)
(159.364 -7.68178 0)
(149.9 -3.5135 0)
(248.506 0.65791 0)
(259.889 -1.27905 0)
(212.189 -0.245624 0)
(331.944 -0.828041 0)
(337.741 -2.53015 0)
(274.57 -1.4925 0)
(354.495 2.15372 0)
(359.377 -0.475815 0)
(294.977 -0.300498 0)
(348.945 3.19728 0)
(354.638 -0.562582 0)
(293.945 -0.161026 0)
(307.03 3.4699 0)
(332.179 0.338191 0)
(286.793 -0.170218 0)
(307.636 1.19329 0)
(330.732 -3.49239 0)
(281.18 0.432011 0)
(308.838 2.78855 0)
(329.512 -1.0008 0)
(280.618 0.771857 0)
(307.525 0.454787 0)
(327.287 -3.09775 0)
(282.642 -4.9569 0)
(306.173 -0.43987 0)
(324.97 -1.5954 0)
(281.479 -4.07648 0)
)
;

boundaryField
{
    inlet
    {
        type            zeroGradient;
    }
    outlet
    {
        type            zeroGradient;
    }
    bottom
    {
        type            symmetryPlane;
    }
    top
    {
        type            symmetryPlane;
    }
    obstacle
    {
        type            zeroGradient;
    }
    defaultFaces
    {
        type            empty;
    }
}


// ************************************************************************* //
