/*--------------------------------*- C++ -*----------------------------------*\
| =========                 |                                                 |
| \\      /  F ield         | OpenFOAM: The Open Source CFD Toolbox           |
|  \\    /   O peration     | Version:  5.x                                   |
|   \\  /    A nd           | Web:      www.OpenFOAM.org                      |
|    \\/     M anipulation  |                                                 |
\*---------------------------------------------------------------------------*/
/*   Windows 32 and 64 bit porting by blueCAPE: http://www.bluecape.com.pt   *\
|  Based on Windows porting (2.0.x v4) by Symscape: http://www.symscape.com   |
\*---------------------------------------------------------------------------*/
FoamFile
{
    version     2.0;
    format      ascii;
    class       volScalarField;
    location    "0.002";
    object      mag(U);
}
// * * * * * * * * * * * * * * * * * * * * * * * * * * * * * * * * * * * * * //

dimensions      [0 1 -1 0 0 0 0];

internalField   nonuniform List<scalar> 
10000
(
7.88392e-013
4.08957e-012
2.30221e-012
4.38302e-012
7.10917e-012
3.04994e-012
2.27497e-012
2.40941e-010
2.57094e-009
3.25092e-008
2.92127e-007
3.05004e-006
2.35138e-005
0.000199265
0.00129626
0.00872402
0.0466838
0.241142
0.979451
3.46482
9.79078
23.5722
47.3964
80.1957
118.372
156.082
189.776
219.264
245.971
269.554
286.191
291.142
291.971
294.325
293.039
287.394
279.655
269.584
246.375
173.042
53.8491
7.94381
1.18648
0.182535
0.0290814
0.0048502
0.00084388
0.000152954
2.86367e-005
5.49169e-006
1.06965e-006
2.09535e-007
4.12644e-008
8.07902e-009
1.58639e-009
3.1297e-010
6.12396e-011
1.11702e-011
4.54272e-012
1.2561e-011
1.71517e-012
9.83872e-012
2.14069e-012
3.23671e-012
7.53337e-012
3.85974e-012
6.54403e-013
2.41118e-010
2.571e-009
3.25092e-008
2.92127e-007
3.05004e-006
2.35138e-005
0.000199265
0.00129626
0.00872402
0.0466838
0.241142
0.979451
3.46482
9.79078
23.5722
47.3964
80.1957
118.372
156.082
189.776
219.264
245.971
269.554
286.191
291.142
291.971
294.325
293.039
287.394
279.655
269.584
246.375
173.042
53.8491
7.94381
1.18648
0.182535
0.0290814
0.0048502
0.00084388
0.000152954
2.86367e-005
5.49169e-006
1.06965e-006
2.09534e-007
4.12636e-008
8.07867e-009
1.58562e-009
3.12929e-010
6.20328e-011
1.16487e-011
3.00246e-012
1.20204e-011
3.41882e-013
3.57355e-012
5.01431e-012
4.00899e-012
9.16105e-012
3.02501e-012
4.72004e-012
2.40764e-010
2.57071e-009
3.25093e-008
2.92127e-007
3.05004e-006
2.35138e-005
0.000199265
0.00129626
0.00872402
0.0466838
0.241142
0.979451
3.46482
9.79078
23.5722
47.3964
80.1957
118.372
156.082
189.776
219.264
245.971
269.554
286.191
291.142
291.971
294.325
293.039
287.394
279.655
269.584
246.375
173.042
53.8491
7.94381
1.18648
0.182535
0.0290814
0.0048502
0.00084388
0.000152954
2.86367e-005
5.49169e-006
1.06965e-006
2.09535e-007
4.12645e-008
8.07848e-009
1.58739e-009
3.13361e-010
5.95878e-011
1.24798e-011
5.47296e-012
1.58086e-011
2.52542e-012
5.62473e-012
2.53105e-012
3.71676e-012
9.31663e-012
3.46137e-012
2.63433e-012
2.40842e-010
2.57087e-009
3.25093e-008
2.92127e-007
3.05004e-006
2.35138e-005
0.000199265
0.00129626
0.00872402
0.0466838
0.241142
0.979451
3.46482
9.79078
23.5722
47.3964
80.1957
118.372
156.082
189.776
219.264
245.971
269.554
286.191
291.142
291.971
294.325
293.039
287.394
279.655
269.584
246.375
173.042
53.8491
7.94381
1.18648
0.182535
0.0290814
0.0048502
0.00084388
0.000152954
2.86367e-005
5.49169e-006
1.06965e-006
2.09534e-007
4.12627e-008
8.07837e-009
1.58594e-009
3.12893e-010
6.10195e-011
1.09381e-011
1.72186e-012
1.40665e-011
1.18015e-012
3.44402e-012
4.07629e-012
3.59364e-012
7.06526e-012
7.16558e-012
3.56603e-012
2.40605e-010
2.57064e-009
3.25093e-008
2.92127e-007
3.05004e-006
2.35138e-005
0.000199265
0.00129626
0.00872402
0.0466838
0.241142
0.979451
3.46482
9.79078
23.5722
47.3964
80.1957
118.372
156.082
189.776
219.264
245.971
269.554
286.191
291.142
291.971
294.325
293.039
287.394
279.655
269.584
246.375
173.042
53.8491
7.94381
1.18648
0.182535
0.0290814
0.0048502
0.00084388
0.000152954
2.86367e-005
5.49169e-006
1.06965e-006
2.09536e-007
4.12646e-008
8.0787e-009
1.58827e-009
3.1366e-010
5.85742e-011
1.01928e-011
8.74372e-012
1.11268e-011
3.96418e-012
5.96392e-012
3.07032e-012
3.54979e-012
7.11877e-012
4.06094e-012
3.62687e-012
2.40727e-010
2.57094e-009
3.25091e-008
2.92127e-007
3.05004e-006
2.35138e-005
0.000199265
0.00129626
0.00872402
0.0466838
0.241142
0.979451
3.46482
9.79078
23.5722
47.3964
80.1957
118.372
156.082
189.776
219.264
245.971
269.554
286.191
291.142
291.971
294.325
293.039
287.394
279.655
269.584
246.375
173.042
53.8491
7.94381
1.18648
0.182535
0.0290814
0.0048502
0.00084388
0.000152954
2.86367e-005
5.49169e-006
1.06965e-006
2.09534e-007
4.12626e-008
8.07826e-009
1.5861e-009
3.13152e-010
6.11167e-011
8.99631e-012
3.27245e-012
1.13651e-011
2.03414e-012
4.17343e-012
3.06076e-012
5.41738e-012
7.50697e-012
4.25767e-012
1.52791e-012
2.40435e-010
2.57084e-009
3.25093e-008
2.92127e-007
3.05004e-006
2.35138e-005
0.000199265
0.00129626
0.00872402
0.0466838
0.241142
0.979451
3.46482
9.79078
23.5722
47.3964
80.1957
118.372
156.082
189.776
219.264
245.971
269.554
286.191
291.142
291.971
294.325
293.039
287.394
279.655
269.584
246.375
173.042
53.8491
7.94381
1.18648
0.182535
0.0290814
0.0048502
0.00084388
0.000152954
2.86367e-005
5.49169e-006
1.06965e-006
2.09536e-007
4.12657e-008
8.07912e-009
1.58843e-009
3.13824e-010
5.7698e-011
8.94821e-012
6.58757e-012
1.07701e-011
4.17529e-012
4.87915e-012
4.40824e-012
4.5164e-012
6.93725e-012
6.11171e-012
3.16556e-012
2.40604e-010
2.57117e-009
3.25093e-008
2.92127e-007
3.05004e-006
2.35138e-005
0.000199265
0.00129626
0.00872402
0.0466838
0.241142
0.979451
3.46482
9.79078
23.5722
47.3964
80.1957
118.372
156.082
189.776
219.264
245.971
269.554
286.191
291.142
291.971
294.325
293.039
287.394
279.655
269.584
246.375
173.042
53.8491
7.94381
1.18648
0.182535
0.0290814
0.0048502
0.00084388
0.000152954
2.86367e-005
5.49169e-006
1.06965e-006
2.09534e-007
4.12628e-008
8.07786e-009
1.58624e-009
3.13753e-010
6.07821e-011
7.75591e-012
4.49316e-012
1.116e-011
3.439e-012
3.93e-012
4.48276e-012
4.21227e-012
6.44235e-012
6.09221e-012
5.94093e-013
2.40167e-010
2.57096e-009
3.25094e-008
2.92127e-007
3.05004e-006
2.35138e-005
0.000199265
0.00129626
0.00872402
0.0466838
0.241142
0.979451
3.46482
9.79078
23.5722
47.3964
80.1957
118.372
156.082
189.776
219.264
245.971
269.554
286.191
291.142
291.971
294.325
293.039
287.394
279.655
269.584
246.375
173.042
53.8491
7.94381
1.18648
0.182535
0.0290814
0.0048502
0.00084388
0.000152954
2.86367e-005
5.49169e-006
1.06965e-006
2.09536e-007
4.12657e-008
8.0794e-009
1.58819e-009
3.14196e-010
5.77179e-011
8.50086e-012
3.75022e-012
1.2281e-011
4.26035e-012
4.53817e-012
2.70944e-012
5.22597e-012
8.27997e-012
6.12383e-012
1.70894e-012
2.40531e-010
2.57109e-009
3.25095e-008
2.92127e-007
3.05004e-006
2.35138e-005
0.000199265
0.00129626
0.00872402
0.0466838
0.241142
0.979451
3.46482
9.79078
23.5722
47.3964
80.1957
118.372
156.082
189.776
219.264
245.971
269.554
286.191
291.142
291.971
294.325
293.039
287.394
279.655
269.584
246.375
173.042
53.8491
7.94381
1.18648
0.182535
0.0290814
0.0048502
0.00084388
0.000152954
2.86367e-005
5.49169e-006
1.06965e-006
2.09534e-007
4.12633e-008
8.07776e-009
1.58602e-009
3.13999e-010
6.06699e-011
7.88304e-012
3.20833e-012
1.26652e-011
2.71502e-012
4.0708e-012
4.16476e-012
4.11156e-012
6.7346e-012
6.91001e-012
1.83738e-012
2.40043e-010
2.57091e-009
3.25096e-008
2.92126e-007
3.05004e-006
2.35138e-005
0.000199265
0.00129626
0.00872402
0.0466838
0.241142
0.979451
3.46482
9.79078
23.5722
47.3964
80.1957
118.372
156.082
189.776
219.264
245.971
269.554
286.191
291.142
291.971
294.325
293.039
287.394
279.655
269.584
246.375
173.042
53.8491
7.94381
1.18648
0.182535
0.0290814
0.0048502
0.00084388
0.000152954
2.86367e-005
5.49169e-006
1.06965e-006
2.09535e-007
4.12658e-008
8.08009e-009
1.58833e-009
3.13387e-010
5.80074e-011
9.1099e-012
1.45745e-012
1.0968e-011
8.69899e-012
3.68e-012
2.90389e-012
4.94899e-012
6.248e-012
1.03413e-011
3.21385e-012
2.40388e-010
2.57107e-009
3.25098e-008
2.92127e-007
3.05004e-006
2.35138e-005
0.000199265
0.00129626
0.00872402
0.0466838
0.241142
0.979451
3.46482
9.79078
23.5722
47.3964
80.1957
118.372
156.082
189.776
219.264
245.971
269.554
286.191
291.142
291.971
294.325
293.039
287.394
279.655
269.584
246.375
173.042
53.8491
7.94381
1.18648
0.182535
0.0290814
0.0048502
0.00084388
0.000152954
2.86367e-005
5.49169e-006
1.06965e-006
2.09534e-007
4.12639e-008
8.07804e-009
1.58563e-009
3.13164e-010
6.0883e-011
8.95702e-012
2.84669e-012
1.14498e-011
2.78837e-012
4.37992e-012
4.69898e-012
4.45734e-012
5.94566e-012
7.15925e-012
1.03606e-012
2.39864e-010
2.5709e-009
3.25099e-008
2.92126e-007
3.05004e-006
2.35138e-005
0.000199265
0.00129626
0.00872402
0.0466838
0.241142
0.979451
3.46482
9.79078
23.5722
47.3964
80.1957
118.372
156.082
189.776
219.264
245.971
269.554
286.191
291.142
291.971
294.325
293.039
287.394
279.655
269.584
246.375
173.042
53.8491
7.94381
1.18648
0.182535
0.0290814
0.0048502
0.00084388
0.000152954
2.86367e-005
5.49169e-006
1.06965e-006
2.09536e-007
4.12659e-008
8.08047e-009
1.58802e-009
3.12785e-010
5.81989e-011
9.99874e-012
2.09816e-012
1.09363e-011
6.52548e-012
4.1551e-012
3.5567e-012
4.98915e-012
5.64942e-012
6.94115e-012
1.09262e-012
2.40295e-010
2.57094e-009
3.25101e-008
2.92127e-007
3.05004e-006
2.35138e-005
0.000199265
0.00129626
0.00872402
0.0466838
0.241142
0.979451
3.46482
9.79078
23.5722
47.3964
80.1957
118.372
156.082
189.776
219.264
245.971
269.554
286.191
291.142
291.971
294.325
293.039
287.394
279.655
269.584
246.375
173.042
53.8491
7.94381
1.18648
0.182535
0.0290814
0.0048502
0.00084388
0.000152954
2.86367e-005
5.49169e-006
1.06965e-006
2.09535e-007
4.12645e-008
8.07777e-009
1.58545e-009
3.13086e-010
6.14961e-011
9.40312e-012
3.16939e-012
1.34966e-011
2.59422e-012
5.69658e-012
5.3777e-012
2.70236e-012
5.39336e-012
7.06414e-012
3.25322e-012
2.39796e-010
2.57083e-009
3.25101e-008
2.92126e-007
3.05004e-006
2.35138e-005
0.000199265
0.00129626
0.00872402
0.0466838
0.241142
0.979451
3.46482
9.79078
23.5722
47.3964
80.1957
118.372
156.082
189.776
219.264
245.971
269.554
286.191
291.142
291.971
294.325
293.039
287.394
279.655
269.584
246.375
173.042
53.8491
7.94381
1.18648
0.182535
0.0290814
0.0048502
0.00084388
0.000152954
2.86367e-005
5.49169e-006
1.06965e-006
2.09536e-007
4.12658e-008
8.08097e-009
1.58745e-009
3.12173e-010
5.94388e-011
9.36517e-012
2.57125e-012
1.16315e-011
7.92641e-012
4.31201e-012
3.74023e-012
4.06363e-012
5.48848e-012
7.43896e-012
5.02104e-012
2.40212e-010
2.57076e-009
3.25102e-008
2.92127e-007
3.05004e-006
2.35138e-005
0.000199265
0.00129626
0.00872402
0.0466838
0.241142
0.979451
3.46482
9.79078
23.5722
47.3964
80.1957
118.372
156.082
189.776
219.264
245.971
269.554
286.191
291.142
291.971
294.325
293.039
287.394
279.655
269.584
246.375
173.042
53.8491
7.94381
1.18648
0.182535
0.0290814
0.0048502
0.00084388
0.000152954
2.86367e-005
5.49169e-006
1.06965e-006
2.09536e-007
4.1265e-008
8.07773e-009
1.58493e-009
3.12612e-010
6.22859e-011
1.02241e-011
4.19457e-012
1.22565e-011
6.18671e-012
5.9102e-012
3.86619e-012
4.01625e-012
5.21946e-012
8.17105e-012
3.63709e-012
2.39542e-010
2.57074e-009
3.25103e-008
2.92126e-007
3.05004e-006
2.35138e-005
0.000199265
0.00129626
0.00872402
0.0466838
0.241142
0.979451
3.46482
9.79078
23.5722
47.3964
80.1957
118.372
156.082
189.776
219.264
245.971
269.554
286.191
291.142
291.971
294.325
293.039
287.394
279.655
269.584
246.375
173.042
53.8491
7.94381
1.18648
0.182535
0.0290814
0.0048502
0.00084388
0.000152954
2.86367e-005
5.49169e-006
1.06965e-006
2.09536e-007
4.12659e-008
8.08105e-009
1.58724e-009
3.11569e-010
6.04214e-011
8.26568e-012
3.33791e-012
1.18808e-011
5.96829e-012
4.87703e-012
4.39799e-012
2.75011e-012
5.2414e-012
1.03746e-011
3.29377e-012
2.39971e-010
2.5706e-009
3.25102e-008
2.92127e-007
3.05004e-006
2.35138e-005
0.000199265
0.00129626
0.00872402
0.0466838
0.241142
0.979451
3.46482
9.79078
23.5722
47.3964
80.1957
118.372
156.082
189.776
219.264
245.971
269.554
286.191
291.142
291.971
294.325
293.039
287.394
279.655
269.584
246.375
173.042
53.8491
7.94381
1.18648
0.182535
0.0290814
0.0048502
0.00084388
0.000152954
2.86367e-005
5.49169e-006
1.06965e-006
2.09536e-007
4.12655e-008
8.07786e-009
1.5849e-009
3.12459e-010
6.24452e-011
9.09425e-012
4.73337e-012
1.18695e-011
4.97148e-012
6.22983e-012
3.53405e-012
3.69468e-012
4.97367e-012
8.6026e-012
4.61926e-012
2.39336e-010
2.57068e-009
3.25103e-008
2.92126e-007
3.05004e-006
2.35138e-005
0.000199265
0.00129626
0.00872402
0.0466838
0.241142
0.979451
3.46482
9.79078
23.5722
47.3964
80.1957
118.372
156.082
189.776
219.264
245.971
269.554
286.191
291.142
291.971
294.325
293.039
287.394
279.655
269.584
246.375
173.042
53.8491
7.94381
1.18648
0.182535
0.0290814
0.0048502
0.00084388
0.000152954
2.86367e-005
5.49169e-006
1.06965e-006
2.09536e-007
4.12661e-008
8.08125e-009
1.58712e-009
3.11259e-010
6.10228e-011
9.04475e-012
3.92966e-012
1.11929e-011
4.67662e-012
5.04086e-012
4.35619e-012
2.90886e-012
4.92862e-012
8.76936e-012
2.12085e-012
2.39677e-010
2.57052e-009
3.25102e-008
2.92127e-007
3.05004e-006
2.35138e-005
0.000199265
0.00129626
0.00872402
0.0466838
0.241142
0.979451
3.46482
9.79078
23.5722
47.3964
80.1957
118.372
156.082
189.776
219.264
245.971
269.554
286.191
291.142
291.971
294.325
293.039
287.394
279.655
269.584
246.375
173.042
53.8491
7.94381
1.18648
0.182535
0.0290814
0.0048502
0.00084388
0.000152954
2.86367e-005
5.49169e-006
1.06965e-006
2.09535e-007
4.1266e-008
8.07868e-009
1.58458e-009
3.12219e-010
6.30441e-011
8.97874e-012
5.19107e-012
1.1922e-011
5.56729e-012
5.35907e-012
3.63009e-012
2.95782e-012
6.14487e-012
8.15005e-012
2.62192e-012
2.39242e-010
2.57068e-009
3.25103e-008
2.92126e-007
3.05004e-006
2.35138e-005
0.000199265
0.00129626
0.00872402
0.0466838
0.241142
0.979451
3.46482
9.79078
23.5722
47.3964
80.1957
118.372
156.082
189.776
219.264
245.971
269.554
286.191
291.142
291.971
294.325
293.039
287.394
279.655
269.584
246.375
173.042
53.8491
7.94381
1.18648
0.182535
0.0290814
0.0048502
0.00084388
0.000152954
2.86367e-005
5.49169e-006
1.06965e-006
2.09535e-007
4.12665e-008
8.0817e-009
1.58675e-009
3.11152e-010
6.16274e-011
8.12785e-012
3.92196e-012
1.09584e-011
3.84791e-012
4.46314e-012
5.6929e-012
3.2787e-012
5.3874e-012
8.15531e-012
1.96934e-012
2.39453e-010
2.57059e-009
3.25103e-008
2.92127e-007
3.05004e-006
2.35138e-005
0.000199265
0.00129626
0.00872402
0.0466838
0.241142
0.979451
3.46482
9.79078
23.5722
47.3964
80.1957
118.372
156.082
189.776
219.264
245.971
269.554
286.191
291.142
291.971
294.325
293.039
287.394
279.655
269.584
246.375
173.042
53.8491
7.94381
1.18648
0.182535
0.0290814
0.0048502
0.00084388
0.000152954
2.86367e-005
5.49169e-006
1.06965e-006
2.09535e-007
4.12666e-008
8.07973e-009
1.58451e-009
3.11853e-010
6.33562e-011
8.17579e-012
5.41327e-012
1.19319e-011
7.03276e-012
6.96242e-012
5.8664e-012
2.59999e-012
4.67996e-012
9.23177e-012
2.23675e-012
2.39067e-010
2.57072e-009
3.25103e-008
2.92126e-007
3.05004e-006
2.35138e-005
0.000199265
0.00129626
0.00872402
0.0466838
0.241142
0.979451
3.46482
9.79078
23.5722
47.3964
80.1957
118.372
156.082
189.776
219.264
245.971
269.554
286.191
291.142
291.971
294.325
293.039
287.394
279.655
269.584
246.375
173.042
53.8491
7.94381
1.18648
0.182535
0.0290814
0.0048502
0.00084388
0.000152954
2.86367e-005
5.49169e-006
1.06965e-006
2.09535e-007
4.12666e-008
8.08219e-009
1.58692e-009
3.1094e-010
6.17755e-011
7.18669e-012
4.10167e-012
1.11973e-011
3.29401e-012
4.49398e-012
4.32399e-012
3.96526e-012
4.40581e-012
6.25828e-012
2.0413e-012
2.39236e-010
2.57069e-009
3.25103e-008
2.92127e-007
3.05004e-006
2.35138e-005
0.000199265
0.00129626
0.00872402
0.0466838
0.241142
0.979451
3.46482
9.79078
23.5722
47.3964
80.1957
118.372
156.082
189.776
219.264
245.971
269.554
286.191
291.142
291.971
294.325
293.039
287.394
279.655
269.584
246.375
173.042
53.8491
7.94381
1.18648
0.182535
0.0290814
0.0048502
0.00084388
0.000152954
2.86367e-005
5.49169e-006
1.06965e-006
2.09535e-007
4.12667e-008
8.08063e-009
1.58489e-009
3.11289e-010
6.3172e-011
8.06883e-012
5.07582e-012
1.21228e-011
6.24375e-012
5.93729e-012
4.25386e-012
2.7648e-012
4.48642e-012
7.72592e-012
2.846e-012
2.3898e-010
2.57081e-009
3.25104e-008
2.92126e-007
3.05004e-006
2.35138e-005
0.000199265
0.00129626
0.00872402
0.0466838
0.241142
0.979451
3.46482
9.79078
23.5722
47.3964
80.1957
118.372
156.082
189.776
219.264
245.971
269.554
286.191
291.142
291.971
294.325
293.039
287.394
279.655
269.584
246.375
173.042
53.8491
7.94381
1.18648
0.182535
0.0290814
0.0048502
0.00084388
0.000152954
2.86367e-005
5.49169e-006
1.06965e-006
2.09535e-007
4.12666e-008
8.08239e-009
1.58723e-009
3.10637e-010
6.17748e-011
7.33755e-012
4.19073e-012
1.09356e-011
2.21968e-012
4.59925e-012
4.45569e-012
4.36615e-012
4.31174e-012
6.40092e-012
3.82862e-012
2.39097e-010
2.57086e-009
3.25103e-008
2.92127e-007
3.05004e-006
2.35138e-005
0.000199265
0.00129626
0.00872402
0.0466838
0.241142
0.979451
3.46482
9.79078
23.5722
47.3964
80.1957
118.372
156.082
189.776
219.264
245.971
269.554
286.191
291.142
291.971
294.325
293.039
287.394
279.655
269.584
246.375
173.042
53.8491
7.94381
1.18648
0.182535
0.0290814
0.0048502
0.00084388
0.000152954
2.86367e-005
5.49169e-006
1.06965e-006
2.09535e-007
4.12669e-008
8.08114e-009
1.58529e-009
3.10891e-010
6.30557e-011
8.06952e-012
5.48324e-012
1.22788e-011
5.20627e-012
6.34345e-012
4.35859e-012
2.80758e-012
4.38062e-012
9.3811e-012
3.2132e-012
2.38876e-010
2.57097e-009
3.25103e-008
2.92126e-007
3.05004e-006
2.35138e-005
0.000199265
0.00129626
0.00872402
0.0466838
0.241142
0.979451
3.46482
9.79078
23.5722
47.3964
80.1957
118.372
156.082
189.776
219.264
245.971
269.554
286.191
291.142
291.971
294.325
293.039
287.394
279.655
269.584
246.375
173.042
53.8491
7.94381
1.18648
0.182535
0.0290814
0.0048502
0.00084388
0.000152954
2.86367e-005
5.49169e-006
1.06965e-006
2.09535e-007
4.12669e-008
8.0823e-009
1.58734e-009
3.10612e-010
6.15938e-011
7.21852e-012
4.70859e-012
1.06737e-011
1.2935e-012
4.86047e-012
4.08466e-012
5.11554e-012
4.47134e-012
7.10841e-012
3.57922e-012
2.3894e-010
2.571e-009
3.25103e-008
2.92127e-007
3.05004e-006
2.35138e-005
0.000199265
0.00129626
0.00872402
0.0466838
0.241142
0.979451
3.46482
9.79078
23.5722
47.3964
80.1957
118.372
156.082
189.776
219.264
245.971
269.554
286.191
291.142
291.971
294.325
293.039
287.394
279.655
269.584
246.375
173.042
53.8491
7.94381
1.18648
0.182535
0.0290814
0.0048502
0.00084388
0.000152954
2.86367e-005
5.49169e-006
1.06965e-006
2.09535e-007
4.12672e-008
8.08141e-009
1.58528e-009
3.10829e-010
6.29374e-011
8.08767e-012
5.66844e-012
1.23213e-011
5.03794e-012
6.21114e-012
5.56286e-012
2.7896e-012
4.70617e-012
9.87457e-012
1.89906e-012
2.38728e-010
2.57112e-009
3.25103e-008
2.92126e-007
3.05004e-006
2.35138e-005
0.000199265
0.00129626
0.00872402
0.0466838
0.241142
0.979451
3.46482
9.79078
23.5722
47.3964
80.1957
118.372
156.082
189.776
219.264
245.971
269.554
286.191
291.142
291.971
294.325
293.039
287.394
279.655
269.584
246.375
173.042
53.8491
7.94381
1.18648
0.182535
0.0290814
0.0048502
0.00084388
0.000152954
2.86367e-005
5.49169e-006
1.06965e-006
2.09535e-007
4.12674e-008
8.08206e-009
1.58719e-009
3.10802e-010
6.16705e-011
6.7779e-012
3.85705e-012
1.03901e-011
1.37454e-012
5.58473e-012
4.82671e-012
3.07703e-012
4.35104e-012
7.00416e-012
2.58779e-012
2.38744e-010
2.57108e-009
3.25102e-008
2.92127e-007
3.05004e-006
2.35138e-005
0.000199265
0.00129626
0.00872402
0.0466838
0.241142
0.979451
3.46482
9.79078
23.5722
47.3964
80.1957
118.372
156.082
189.776
219.264
245.971
269.554
286.191
291.142
291.971
294.325
293.039
287.394
279.655
269.584
246.375
173.042
53.8491
7.94381
1.18648
0.182535
0.0290814
0.0048502
0.00084388
0.000152954
2.86367e-005
5.49169e-006
1.06965e-006
2.09535e-007
4.12675e-008
8.08147e-009
1.58527e-009
3.11035e-010
6.29313e-011
7.57355e-012
5.54547e-012
1.21766e-011
4.92485e-012
5.54005e-012
7.46175e-012
2.54265e-012
5.18645e-012
8.68538e-012
1.92436e-012
2.38636e-010
2.57116e-009
3.25102e-008
2.92126e-007
3.05004e-006
2.35138e-005
0.000199265
0.00129626
0.00872402
0.0466838
0.241142
0.979451
3.46482
9.79078
23.5722
47.3964
80.1957
118.372
156.082
189.776
219.264
245.971
269.554
286.191
291.142
291.971
294.325
293.039
287.394
279.655
269.584
246.375
173.042
53.8491
7.94381
1.18648
0.182535
0.0290814
0.0048502
0.00084388
0.000152954
2.86367e-005
5.49169e-006
1.06965e-006
2.09535e-007
4.12676e-008
8.08201e-009
1.58692e-009
3.11008e-010
6.17278e-011
6.43647e-012
4.2674e-012
1.0266e-011
2.36199e-012
5.55946e-012
6.56196e-012
2.51902e-012
4.86154e-012
7.11344e-012
2.29051e-012
2.38701e-010
2.5711e-009
3.25102e-008
2.92127e-007
3.05004e-006
2.35138e-005
0.000199265
0.00129626
0.00872402
0.0466838
0.241142
0.979451
3.46482
9.79078
23.5722
47.3964
80.1957
118.372
156.082
189.776
219.264
245.971
269.554
286.191
291.142
291.971
294.325
293.039
287.394
279.655
269.584
246.375
173.042
53.8491
7.94381
1.18648
0.182535
0.0290814
0.0048502
0.00084388
0.000152954
2.86367e-005
5.49169e-006
1.06965e-006
2.09534e-007
4.12675e-008
8.08155e-009
1.58559e-009
3.11117e-010
6.27689e-011
7.4394e-012
5.18633e-012
1.2472e-011
3.86979e-012
5.01859e-012
7.23663e-012
2.79547e-012
6.19589e-012
9.90654e-012
1.90304e-012
2.38658e-010
2.57113e-009
3.25102e-008
2.92127e-007
3.05004e-006
2.35138e-005
0.000199265
0.00129626
0.00872402
0.0466838
0.241142
0.979451
3.46482
9.79078
23.5722
47.3964
80.1957
118.372
156.082
189.776
219.264
245.971
269.554
286.191
291.142
291.971
294.325
293.039
287.394
279.655
269.584
246.375
173.042
53.8491
7.94381
1.18648
0.182535
0.0290814
0.0048502
0.00084388
0.000152954
2.86367e-005
5.49169e-006
1.06965e-006
2.09535e-007
4.12678e-008
8.08191e-009
1.58688e-009
3.11252e-010
6.19487e-011
6.2439e-012
3.99511e-012
1.10825e-011
2.43293e-012
5.44092e-012
7.05801e-012
2.6513e-012
4.61692e-012
6.85638e-012
2.3874e-012
2.38739e-010
2.57111e-009
3.25102e-008
2.92127e-007
3.05004e-006
2.35138e-005
0.000199265
0.00129626
0.00872402
0.0466838
0.241142
0.979451
3.46482
9.79078
23.5722
47.3964
80.1957
118.372
156.082
189.776
219.264
245.971
269.554
286.191
291.142
291.971
294.325
293.039
287.394
279.655
269.584
246.375
173.042
53.8491
7.94381
1.18648
0.182535
0.0290814
0.0048502
0.00084388
0.000152954
2.86367e-005
5.49169e-006
1.06965e-006
2.09534e-007
4.12675e-008
8.08171e-009
1.586e-009
3.11419e-010
6.25345e-011
6.93062e-012
4.60359e-012
1.31094e-011
3.36633e-012
4.64338e-012
6.81669e-012
2.43626e-012
5.92057e-012
7.91903e-012
2.14374e-012
2.38662e-010
2.57111e-009
3.25102e-008
2.92127e-007
3.05004e-006
2.35138e-005
0.000199265
0.00129626
0.00872402
0.0466838
0.241142
0.979451
3.46482
9.79078
23.5722
47.3964
80.1957
118.372
156.082
189.776
219.264
245.971
269.554
286.191
291.142
291.971
294.325
293.039
287.394
279.655
269.584
246.375
173.042
53.8491
7.94381
1.18648
0.182535
0.0290814
0.0048502
0.00084388
0.000152954
2.86367e-005
5.49169e-006
1.06965e-006
2.09535e-007
4.1268e-008
8.08186e-009
1.58694e-009
3.11486e-010
6.19272e-011
6.22375e-012
3.26273e-012
1.18542e-011
1.59572e-012
5.10955e-012
6.72131e-012
3.24871e-012
4.35504e-012
5.78163e-012
2.60532e-012
2.3875e-010
2.57107e-009
3.25101e-008
2.92127e-007
3.05004e-006
2.35138e-005
0.000199265
0.00129626
0.00872402
0.0466838
0.241142
0.979451
3.46482
9.79078
23.5722
47.3964
80.1957
118.372
156.082
189.776
219.264
245.971
269.554
286.191
291.142
291.971
294.325
293.039
287.394
279.655
269.584
246.375
173.042
53.8491
7.94381
1.18648
0.182535
0.0290814
0.0048502
0.00084388
0.000152954
2.86367e-005
5.49169e-006
1.06965e-006
2.09534e-007
4.12676e-008
8.08189e-009
1.58641e-009
3.11499e-010
6.24601e-011
7.76858e-012
4.51313e-012
1.26419e-011
3.2156e-012
4.76956e-012
6.99043e-012
3.06542e-012
4.98519e-012
5.19491e-012
3.15839e-012
2.38659e-010
2.57104e-009
3.25101e-008
2.92127e-007
3.05004e-006
2.35138e-005
0.000199265
0.00129626
0.00872402
0.0466838
0.241142
0.979451
3.46482
9.79078
23.5722
47.3964
80.1957
118.372
156.082
189.776
219.264
245.971
269.554
286.191
291.142
291.971
294.325
293.039
287.394
279.655
269.584
246.375
173.042
53.8491
7.94381
1.18648
0.182535
0.0290814
0.0048502
0.00084388
0.000152954
2.86367e-005
5.49169e-006
1.06965e-006
2.09535e-007
4.12681e-008
8.08184e-009
1.58705e-009
3.1167e-010
6.20843e-011
6.20744e-012
3.19637e-012
1.26173e-011
1.5761e-012
7.211e-012
7.90596e-012
3.28876e-012
3.88339e-012
4.10986e-012
3.12686e-012
2.38728e-010
2.57105e-009
3.25101e-008
2.92127e-007
3.05004e-006
2.35138e-005
0.000199265
0.00129626
0.00872402
0.0466838
0.241142
0.979451
3.46482
9.79078
23.5722
47.3964
80.1957
118.372
156.082
189.776
219.264
245.971
269.554
286.191
291.142
291.971
294.325
293.039
287.394
279.655
269.584
246.375
173.042
53.8491
7.94381
1.18648
0.182535
0.0290814
0.0048502
0.00084388
0.000152954
2.86367e-005
5.49169e-006
1.06965e-006
2.09534e-007
4.12677e-008
8.08199e-009
1.58674e-009
3.11659e-010
6.23436e-011
7.20648e-012
3.90867e-012
1.19763e-011
2.72751e-012
5.79779e-012
8.67656e-012
2.52259e-012
4.39205e-012
5.18369e-012
3.65712e-012
2.38615e-010
2.57098e-009
3.25101e-008
2.92127e-007
3.05004e-006
2.35138e-005
0.000199265
0.00129626
0.00872402
0.0466838
0.241142
0.979451
3.46482
9.79078
23.5722
47.3964
80.1957
118.372
156.082
189.776
219.264
245.971
269.554
286.191
291.142
291.971
294.325
293.039
287.394
279.655
269.584
246.375
173.042
53.8491
7.94381
1.18648
0.182535
0.0290814
0.0048502
0.00084388
0.000152954
2.86367e-005
5.49169e-006
1.06965e-006
2.09534e-007
4.12682e-008
8.08179e-009
1.58719e-009
3.11765e-010
6.2195e-011
5.91816e-012
3.02015e-012
1.26007e-011
1.48632e-012
7.21792e-012
1.08591e-011
3.27284e-012
4.11189e-012
4.26845e-012
3.7537e-012
2.38678e-010
2.57099e-009
3.25101e-008
2.92127e-007
3.05004e-006
2.35138e-005
0.000199265
0.00129626
0.00872402
0.0466838
0.241142
0.979451
3.46482
9.79078
23.5722
47.3964
80.1957
118.372
156.082
189.776
219.264
245.971
269.554
286.191
291.142
291.971
294.325
293.039
287.394
279.655
269.584
246.375
173.042
53.8491
7.94381
1.18648
0.182535
0.0290814
0.0048502
0.00084388
0.000152954
2.86367e-005
5.49169e-006
1.06965e-006
2.09534e-007
4.12678e-008
8.08207e-009
1.58698e-009
3.11697e-010
6.23512e-011
6.56705e-012
3.3263e-012
1.20098e-011
1.40853e-012
5.36211e-012
9.32491e-012
2.36821e-012
4.51598e-012
4.25786e-012
3.89099e-012
2.38551e-010
2.5709e-009
3.25101e-008
2.92127e-007
3.05004e-006
2.35138e-005
0.000199265
0.00129626
0.00872402
0.0466838
0.241142
0.979451
3.46482
9.79078
23.5722
47.3964
80.1957
118.372
156.082
189.776
219.264
245.971
269.554
286.191
291.142
291.971
294.325
293.039
287.394
279.655
269.584
246.375
173.042
53.8491
7.94381
1.18648
0.182535
0.0290814
0.0048502
0.00084388
0.000152954
2.86367e-005
5.49169e-006
1.06965e-006
2.09534e-007
4.12682e-008
8.08181e-009
1.58734e-009
3.1184e-010
6.22835e-011
5.93124e-012
2.98669e-012
1.34578e-011
1.42903e-012
6.83569e-012
1.13128e-011
2.97859e-012
5.27106e-012
4.10147e-012
3.77676e-012
2.38592e-010
2.57093e-009
3.25101e-008
2.92128e-007
3.05004e-006
2.35138e-005
0.000199265
0.00129626
0.00872402
0.0466838
0.241142
0.979451
3.46482
9.79078
23.5722
47.3964
80.1957
118.372
156.082
189.776
219.264
245.971
269.554
286.191
291.142
291.971
294.325
293.039
287.394
279.655
269.584
246.375
173.042
53.8491
7.94381
1.18648
0.182535
0.0290814
0.0048502
0.00084388
0.000152954
2.86367e-005
5.49169e-006
1.06965e-006
2.09534e-007
4.12678e-008
8.08216e-009
1.58721e-009
3.11714e-010
6.23144e-011
6.22501e-012
2.7472e-012
1.18527e-011
3.0303e-012
5.71604e-012
1.06141e-011
3.12685e-012
4.8415e-012
4.04784e-012
3.62021e-012
2.38488e-010
2.57083e-009
3.25101e-008
2.92128e-007
3.05004e-006
2.35138e-005
0.000199265
0.00129626
0.00872402
0.0466838
0.241142
0.979451
3.46482
9.79078
23.5722
47.3964
80.1957
118.372
156.082
189.776
219.264
245.971
269.554
286.191
291.142
291.971
294.325
293.039
287.394
279.655
269.584
246.375
173.042
53.8491
7.94381
1.18648
0.182535
0.0290814
0.0048502
0.00084388
0.000152954
2.86367e-005
5.49169e-006
1.06965e-006
2.09534e-007
4.12682e-008
8.08184e-009
1.58747e-009
3.11892e-010
6.23298e-011
5.931e-012
2.27883e-012
1.40314e-011
1.55648e-012
6.09017e-012
1.0773e-011
2.61319e-012
4.81522e-012
3.32489e-012
3.52997e-012
2.38523e-010
2.57086e-009
3.25101e-008
2.92128e-007
3.05004e-006
2.35138e-005
0.000199265
0.00129626
0.00872402
0.0466838
0.241142
0.979451
3.46482
9.79078
23.5722
47.3964
80.1957
118.372
156.082
189.776
219.264
245.971
269.554
286.191
291.142
291.971
294.325
293.039
287.394
279.655
269.584
246.375
173.042
53.8491
7.94381
1.18648
0.182535
0.0290814
0.0048502
0.00084388
0.000152954
2.86367e-005
5.49169e-006
1.06965e-006
2.09534e-007
4.12679e-008
8.08217e-009
1.58736e-009
3.1174e-010
6.23179e-011
6.14413e-012
2.4873e-012
1.22353e-011
3.51284e-012
5.26291e-012
9.81115e-012
2.27611e-012
4.83004e-012
4.43646e-012
3.20051e-012
2.38429e-010
2.57079e-009
3.25101e-008
2.92128e-007
3.05004e-006
2.35138e-005
0.000199265
0.00129626
0.00872402
0.0466838
0.241142
0.979451
3.46482
9.79078
23.5722
47.3964
80.1957
118.372
156.082
189.776
219.264
245.971
269.554
286.191
291.142
291.971
294.325
293.039
287.394
279.655
269.584
246.375
173.042
53.8491
7.94381
1.18648
0.182535
0.0290814
0.0048502
0.00084388
0.000152954
2.86367e-005
5.49169e-006
1.06965e-006
2.09534e-007
4.12682e-008
8.0819e-009
1.58754e-009
3.1197e-010
6.23076e-011
5.73964e-012
1.93429e-012
1.3261e-011
2.23975e-012
5.17463e-012
1.02259e-011
2.45509e-012
4.7953e-012
3.65359e-012
3.03703e-012
2.38454e-010
2.57081e-009
3.25102e-008
2.92128e-007
3.05004e-006
2.35138e-005
0.000199265
0.00129626
0.00872402
0.0466838
0.241142
0.979451
3.46482
9.79078
23.5722
47.3964
80.1957
118.372
156.082
189.776
219.264
245.971
269.554
286.191
291.142
291.971
294.325
293.039
287.394
279.655
269.584
246.375
173.042
53.8491
7.94381
1.18648
0.182535
0.0290814
0.0048502
0.00084388
0.000152954
2.86367e-005
5.49169e-006
1.06965e-006
2.09534e-007
4.1268e-008
8.08217e-009
1.58744e-009
3.11833e-010
6.23176e-011