/*--------------------------------*- C++ -*----------------------------------*\
| =========                 |                                                 |
| \\      /  F ield         | OpenFOAM: The Open Source CFD Toolbox           |
|  \\    /   O peration     | Version:  5.x                                   |
|   \\  /    A nd           | Web:      www.OpenFOAM.org                      |
|    \\/     M anipulation  |                                                 |
\*---------------------------------------------------------------------------*/
/*   Windows 32 and 64 bit porting by blueCAPE: http://www.bluecape.com.pt   *\
|  Based on Windows porting (2.0.x v4) by Symscape: http://www.symscape.com   |
\*---------------------------------------------------------------------------*/
FoamFile
{
    version     2.0;
    format      ascii;
    class       surfaceScalarField;
    location    "0.002";
    object      phi;
}
// * * * * * * * * * * * * * * * * * * * * * * * * * * * * * * * * * * * * * //

dimensions      [1 0 -1 0 0 0 0];

internalField   nonuniform List<scalar> 
19740
(
4.17747e-014
2.98428e-013
5.42327e-014
-1.58362e-012
-7.59635e-015
1.16351e-013
3.84319e-014
-8.58869e-013
4.40351e-014
6.59472e-013
-3.61074e-014
-7.39853e-013
2.26724e-012
-6.62581e-013
2.66554e-011
9.05498e-013
3.32413e-010
-7.52731e-013
3.0933e-009
2.21156e-013
3.18471e-008
-2.86882e-013
2.54526e-007
3.81917e-013
2.13595e-006
-4.61853e-014
1.44176e-005
-5.03597e-013
9.67481e-005
8.81073e-013
0.000538294
5.17808e-013
0.00281472
1.39888e-012
0.0125505
5.04929e-013
0.0469395
3.606e-013
0.142259
2.57794e-013
0.349122
1.80078e-013
0.711276
-4.36984e-013
1.18598
-1.80522e-013
1.65552
-2.12275e-013
2.03709
-7.27196e-013
2.26345
-1.98175e-013
2.37021
5.71765e-014
2.51107
2.9643e-014
2.57965
1.32672e-013
2.56693
9.76996e-014
2.3043
3.29903e-013
2.09044
3.52496e-014
1.788
6.28553e-013
1.6115
6.59139e-013
1.52895
7.00551e-013
1.50875
6.84564e-013
1.50294
6.37712e-013
1.45824
8.21287e-013
1.24289
1.0999e-012
0.3271
1.03823e-012
0.0705372
-2.21489e-014
0.0104418
-2.91434e-015
0.00158077
-5.98827e-014
0.000245336
-3.79419e-014
3.94174e-005
1.21708e-014
6.62488e-006
-4.93494e-014
1.16179e-006
5.16809e-014
2.11949e-007
-6.90697e-014
3.98773e-008
-2.77556e-015
7.67088e-009
-4.62269e-014
1.49555e-009
6.32827e-015
2.93148e-010
4.04954e-014
5.76303e-011
1.41692e-014
1.12815e-011
2.16493e-015
2.21493e-012
-2.55213e-014
4.35631e-013
1.8735e-014
8.40977e-014
-3.58047e-015
1.95555e-014
-1.86379e-014
-7.31056e-015
3.8719e-015
-8.60978e-014
4.32545e-014
3.14859e-013
4.9823e-014
-1.99485e-012
-9.34409e-015
1.21236e-012
3.79627e-014
3.33511e-013
4.22683e-014
1.77414e-012
-3.59487e-014
-5.76428e-013
2.19516e-012
9.63229e-013
2.57961e-011
1.36335e-012
3.21673e-010
-1.06137e-012
2.99335e-009
-2.27818e-013
3.08181e-008
-1.98508e-013
2.46302e-007
7.60281e-013
2.06693e-006
8.4821e-014
1.39517e-005
-8.76188e-013
9.3622e-005
1.44507e-012
0.000520901
2.43805e-013
0.00272377
1.21814e-012
0.0121449
1.06315e-012
0.0454228
2.17604e-014
0.137663
-1.58984e-013
0.337841
-1.35891e-013
0.688293
-3.1819e-013
1.14766
1.8785e-013
1.60202
2.07612e-013
1.97127
-8.96616e-013
2.19031
-4.60521e-013
2.29362
-6.79456e-014
2.42993
-4.77396e-014
2.4963
1.40887e-013
2.48398
1.27454e-013
2.22984
4.996e-013
2.0229
7.08766e-013
1.73023
1.02413e-012
1.55942
9.78162e-013
1.47955
7.7538e-013
1.46
3.65374e-013
1.45437
1.02307e-013
1.41112
1.59706e-013
1.20273
2.14606e-013
0.316531
6.83731e-013
0.068258
-2.22877e-014
0.0101044
-5.81479e-015
0.00152969
-3.69704e-014
0.000237409
-2.96846e-014
3.81438e-005
2.41057e-014
6.41081e-006
-1.00878e-013
1.12425e-006
1.13035e-013
2.051e-007
-1.09593e-013
3.85887e-008
-5.53724e-015
7.42302e-009
-5.99243e-014
1.44723e-009
5.9952e-015
2.83675e-010
6.12982e-014
5.57668e-011
1.77774e-014
1.09155e-011
1.6806e-014
2.1424e-012
-1.63897e-014
4.22439e-013
5.59691e-014
8.29579e-014
7.78544e-015
1.78165e-014
-4.17444e-014
-1.13408e-014
-3.65125e-014
-1.09718e-013
3.52739e-014
-5.67546e-013
5.33384e-014
-7.0699e-013
-3.72619e-015
1.38423e-012
3.61586e-014
1.27942e-012
3.94832e-014
2.68763e-012
-3.14098e-014
-4.7562e-013
2.12435e-012
1.43174e-012
2.49574e-011
1.29052e-012
3.11278e-010
-6.2661e-013
2.89663e-009
4.88498e-013
2.98223e-008
-2.97096e-013
2.38343e-007
3.33511e-013
2.00015e-006
-1.6076e-013
1.35009e-005
-1.40243e-012
9.05968e-005
1.43263e-012
0.000504069
4.56968e-013
0.00263576
1.30695e-012
0.0117525
1.80611e-012
0.0439551
-1.18572e-013
0.133214
-1.6831e-013
0.326925
1.14131e-013
0.666053
-3.3884e-013
1.11057
2.48912e-013
1.55026
1.6076e-013
1.90757
-6.16618e-013
2.11954
-4.30767e-013
2.21951
-1.1402e-013
2.35141
-5.11813e-014
2.41564
2.72005e-013
2.40372
1.42997e-013
2.15779
5.76761e-013
1.95753
1.08419e-012
1.67432
9.85545e-013
1.50904
8.91842e-013
1.43174
4.35985e-013
1.41282
-4.93106e-013
1.40738
-1.04028e-012
1.36552
-1.31312e-012
1.16387
-1.603e-012
0.306303
-6.63913e-013
0.0660524
-4.64351e-014
0.00977787
1.54043e-015
0.00148026
-7.63278e-015
0.000229738
-4.12725e-014
3.69113e-005
1.34892e-014
6.20367e-006
-7.59115e-014
1.08792e-006
1.14367e-013
1.98473e-007
-9.91429e-014
3.73419e-008
-2.45637e-015
7.18317e-009
-5.21944e-014
1.40047e-009
5.09315e-015
2.7451e-010
2.88658e-014
5.39658e-011
2.5438e-014
1.05646e-011
-4.66294e-015
2.07568e-012
2.12053e-014
4.06694e-013
5.13617e-014
7.67268e-014
3.02952e-014
1.58376e-014
-4.20219e-014
-8.54742e-015
-3.09197e-014
-1.13812e-013
4.06437e-014
-9.31255e-013
4.87319e-014
-9.92539e-013
-7.36303e-015
9.60565e-013
3.46658e-014
9.23261e-013
3.79358e-014
1.7133e-012
-3.35305e-014
-1.62403e-012
2.05358e-012
1.47971e-012
2.41524e-011
1.53921e-012
3.01221e-010
1.54099e-013
2.80304e-009
1.37534e-012
2.88587e-008
-8.60645e-013
2.30642e-007
2.79332e-013
1.93552e-006
-1.53211e-013
1.30647e-005
-1.21858e-012
8.76695e-005
1.91358e-012
0.000487782
-2.69562e-013
0.00255059
9.58789e-013
0.0113728
2.33413e-012
0.0425348
1.11466e-013
0.12891
-1.95399e-014
0.316361
-5.01821e-014
0.644532
-3.51719e-013
1.07469
1.93401e-013
1.50017
3.12861e-013
1.84593
-4.14335e-013
2.05105
-1.7697e-013
2.1478
-2.357e-013
2.27543
-2.55906e-013
2.33758
1.41109e-013
2.32605
2.5413e-013
2.08807
4.67848e-013
1.89428
8.69249e-013
1.62022
1.10956e-012
1.46028
8.5798e-013
1.38548
3.13416e-013
1.36717
-6.30662e-013
1.36191
-1.37146e-012
1.3214
-1.80167e-012
1.12626
-2.16577e-012
0.296406
-1.37623e-012
0.0639181
-1.21292e-013
0.00946193
-2.66731e-014
0.00143243
-1.43635e-014
0.000222315
-3.34316e-014
3.57186e-005
2.566e-014
6.00321e-006
-7.52592e-014
1.05277e-006
1.15852e-013
1.9206e-007
-7.42323e-014
3.61353e-008
-1.55154e-014
6.95107e-009
-1.20806e-013
1.35521e-009
3.19189e-016
2.65637e-010
-4.26048e-015
5.22198e-011
2.78666e-014
1.02215e-011
-6.66134e-016
2.00658e-012
2.32314e-014
3.94161e-013
3.99125e-014
7.59449e-014
4.46726e-014
1.3043e-014
8.8124e-015
-1.34476e-014
-6.58362e-014
-5.9508e-014
3.39763e-014
-1.16618e-012
5.29568e-014
-9.47242e-013
-2.42861e-016
1.17506e-012
3.36597e-014
8.22453e-013
3.45184e-014
8.37108e-013
-2.7655e-014
-2.18581e-012
1.99026e-012
1.37579e-012
2.33686e-011
-4.20997e-013
2.91486e-010
1.12355e-013
2.71246e-009
8.2645e-013
2.79262e-008
-6.81233e-013
2.23189e-007
4.08562e-013
1.87298e-006
-2.5091e-013
1.26425e-005
-6.59028e-013
8.48367e-005
2.28395e-012
0.000472021
-5.57776e-013
0.00246818
1.40332e-012
0.0110053
2.71339e-012
0.0411604
-4.13003e-014
0.124745
-4.21885e-014
0.306139
-1.16351e-013
0.623705
-6.03961e-013
1.03996
2.24487e-013
1.45169
4.78284e-013
1.78629
-2.01839e-013
1.98478
-1.39666e-013
2.0784
-9.42579e-014
2.20191
-3.45945e-013
2.26205
6.61693e-014
2.25089
1.16573e-013
2.0206
4.44866e-013
1.83307
6.18561e-013
1.56787
1.38972e-012
1.41309
1.23834e-012
1.34071
8.64253e-013
1.32299
2.36922e-013
1.3179
-5.92082e-013
1.2787
-9.05553e-013
1.08987
-9.83769e-013
0.286828
-8.1174e-013
0.0618528
-1.52794e-013
0.00915619
-4.3715e-014
0.00138615
-4.63518e-014
0.000215131
-5.63716e-014
3.45645e-005
2.61041e-014
5.80924e-006
-6.21447e-014
1.01875e-006
9.87543e-014
1.85854e-007
-1.91652e-014
3.49677e-008
-3.59435e-014
6.72646e-009
-1.07095e-013
1.31143e-009
3.26128e-015
2.57058e-010
-3.49026e-014
5.05347e-011
3.35842e-015
9.89415e-012
2.77139e-014
1.94502e-012
2.48135e-014
3.79894e-013
5.08205e-014
6.97276e-014
4.12587e-014
1.2304e-014
1.2601e-014
-1.00185e-014
-6.90142e-014
-2.5091e-014
3.97113e-014
-1.6227e-012
4.71975e-014
-1.80833e-012
-6.56419e-015
6.10179e-013
3.00654e-014
1.60938e-012
3.24879e-014
1.46061e-012
-2.78666e-014
-1.14797e-012
1.92489e-012
1.03961e-012
2.2617e-011
-1.1422e-012
2.82068e-010
-5.9508e-013
2.62482e-009
8.0469e-013
2.70238e-008
2.11386e-013
2.15978e-007
3.64153e-014
1.81246e-006
2.02061e-013
1.2234e-005
-4.56968e-013
8.20954e-005
2.26041e-012
0.000456769
1.06581e-013
0.00238843
1.6307e-012
0.0106497
2.77556e-012
0.0398304
1.55431e-013
0.120714
-1.62093e-013
0.296247
-9.85878e-014
0.603552
-4.93383e-013
1.00636
2.66454e-015
1.40478
6.38378e-013
1.72857
-5.59552e-014
1.92065
-9.05942e-014
2.01124
-1.77747e-013
2.13076
-3.57936e-013
2.18896
-3.43059e-014
2.17816
8.58202e-014
1.95531
4.52416e-013
1.77384
7.4174e-013
1.5172
1.91519e-012
1.36743
1.94172e-012
1.29739
1.80189e-012
1.28025
1.21103e-012
1.27532
2.85827e-013
1.23738
1.29619e-013
1.05465
5.13922e-013
0.27756
2.86438e-014
0.0598542
-1.04389e-013
0.00886033
-5.60108e-014
0.00134136
-1.80411e-014
0.00020818
-7.5509e-014
3.34476e-005
3.04617e-014
5.62153e-006
-2.47996e-014
9.85833e-007
8.267e-014
1.79849e-007
2.6687e-014
3.38378e-008
-2.86715e-014
6.50912e-009
-1.16449e-013
1.26905e-009
-1.91513e-014
2.48748e-010
-2.18436e-014
4.88994e-011
-1.40998e-014
9.57165e-012
3.87884e-014
1.87956e-012
-1.45717e-014
3.69647e-013
4.67265e-014
6.896e-014
2.96707e-014
9.56353e-015
-2.52576e-015
-1.21743e-014
-5.9161e-014
-2.03448e-014
3.36944e-014
-1.35625e-012
5.33141e-014
-1.19993e-012
1.32099e-015
9.59677e-013
3.082e-014
1.97531e-012
3.09561e-014
1.16973e-012
-2.5124e-014
-1.80611e-012
1.86209e-012
1.09068e-012
2.1883e-011
-1.5552e-012
2.72954e-010
-1.05649e-012
2.54e-009
2.51799e-013
2.61506e-008
4.84057e-013
2.08999e-007
-1.2812e-012
1.75389e-006
2.68674e-013
1.18387e-005
3.14415e-013
7.94428e-005
2.05391e-012
0.000442009
7.15872e-013
0.00231125
1.56009e-012
0.0103056
3.15037e-012
0.0385434
1.73639e-013
0.116813
-3.95239e-014
0.286675
-1.45661e-013
0.58405
-6.4837e-013
0.973842
-1.14797e-013
1.35939
7.32081e-013
1.67272
6.61693e-014
1.85859
7.23865e-014
1.94625
-3.47722e-013
2.06191
-5.35016e-013
2.11823
-2.37588e-014
2.10778
1.1191e-013
1.89213
4.97047e-013
1.71652
1.14753e-012
1.46818
2.37543e-012
1.32325
2.41729e-012
1.25547
2.37216e-012
1.23888
1.58362e-012
1.23411
6.10678e-013
1.1974
4.6313e-013
1.02057
8.05023e-013
0.268592
4.90941e-013
0.0579202
-1.6348e-014
0.00857404
-5.68712e-014
0.00129802
-7.13318e-015
0.000201453
-5.0987e-014
3.23668e-005
3.66374e-015
5.43988e-006
-7.68829e-015
9.53979e-007
1.09357e-013
1.74037e-007
6.15064e-014
3.27444e-008
-1.95816e-014
6.29879e-009
-9.15379e-014
1.22805e-009
-8.70137e-015
2.40716e-010
2.79637e-014
4.73231e-011
-6.43929e-015
9.26559e-012
3.50414e-014
1.8218e-012
-1.04083e-014
3.55092e-013
2.84078e-014
6.34341e-014
4.09672e-014
1.06031e-014
2.84495e-015
-9.03227e-015
-6.7335e-014
-3.70537e-014
3.71977e-014
-2.10676e-012
4.71073e-014
-1.01341e-012
-3.38531e-015
7.63833e-014
2.68422e-014
1.41798e-012
2.73705e-014
7.81153e-013
-2.68934e-014
-2.37188e-012
1.80113e-012
5.71987e-013
2.11799e-011
-4.97824e-013
2.64137e-010
-8.45102e-013
2.45793e-009
-2.22045e-013
2.53056e-008
1.00142e-012
2.02246e-007
-1.5592e-012
1.69722e-006
5.49338e-013
1.14562e-005
6.00853e-013
7.68758e-005
1.66223e-012
0.000427727
1.76659e-012
0.00223657
1.56986e-012
0.00997256
3.14992e-012
0.037298
-3.82361e-013
0.113039
-1.32339e-013
0.277412
-4.66738e-013
0.565178
-4.17888e-013
0.942375
-5.32907e-014
1.31547
4.88276e-013
1.61867
3.88578e-014
1.79853
3.95239e-014
1.88336
-2.7367e-013
1.99529
-5.80203e-013
2.04978
-4.44089e-016
2.03967
1.42109e-013
1.83099
7.34524e-013
1.66106
1.67455e-012
1.42074
2.56939e-012
1.28049
2.70528e-012
1.2149
2.61846e-012
1.19885
1.38078e-012
1.19423
2.97207e-013
1.15871
-3.00648e-013
0.987596
-5.56888e-013
0.259913
-2.9976e-013
0.0560487
1.19071e-014
0.00829699
-8.77354e-014
0.00125607
1.6348e-014
0.000194944
-1.54876e-014
3.1321e-005
-9.24261e-015
5.26411e-006
1.77636e-015
9.23154e-007
9.75886e-014
1.68414e-007
5.67185e-014
3.16864e-008
1.42386e-014
6.09527e-009
-5.89112e-014
1.18836e-009
-1.42941e-015
2.32933e-010
3.60406e-014
4.579e-011
-2.18991e-014
8.96304e-012
5.48589e-014
1.76057e-012
-6.05072e-015
3.46528e-013
2.97956e-014
6.28629e-014
2.18298e-014
7.34222e-015
2.566e-014
-1.05402e-014
-5.52752e-014
-6.44346e-014
3.36562e-014
-1.71596e-012
5.41641e-014
-7.08766e-013
2.55698e-015
-4.82281e-013
2.62611e-014
1.83675e-012
2.69134e-014
1.35891e-012
-2.30918e-014
-2.18359e-012
1.7422e-012
4.74287e-013
2.04907e-011
4.55191e-013
2.55602e-010
-6.30163e-013
2.37851e-009
-3.2685e-013
2.4488e-008
1.23013e-012
1.95711e-007
-1.75904e-012
1.64238e-006
4.77396e-013
1.1086e-005
8.81517e-013
7.43918e-005
1.27676e-012
0.000413906
2.22222e-012
0.0021643
1.78035e-012
0.00965033
3.21343e-012
0.0360928
-1.76748e-013
0.109386
-1.39888e-013
0.268448
-1.53655e-013
0.546916
2.06946e-013
0.911925
-4.08562e-014
1.27296
4.92051e-013
1.56636
2.58904e-013
1.74042
3.19522e-013
1.82251
-5.41789e-014
1.93081
-4.42091e-013
1.98355
8.29337e-014
1.97377
1.26898e-013
1.77183
8.26339e-013
1.60739
2.18103e-012
1.37483
2.82929e-012
1.23911
2.83784e-012
1.17564
2.69273e-012
1.16011
1.11366e-012
1.15564
-3.05589e-013
1.12127
-1.49986e-012
0.955685
-2.52065e-012
0.251515
-1.6776e-012
0.0542376
-1.01308e-014
0.0080289
-6.1201e-014
0.00121549
4.02178e-014
0.000188645
-2.06224e-014
3.0309e-005
-1.1019e-014
5.09401e-006
3.31679e-014
8.93325e-007
9.40081e-014
1.62972e-007
5.47201e-014
3.06625e-008
3.00732e-014
5.89832e-009
-5.81479e-014
1.14997e-009
1.15463e-014
2.25411e-010
2.53825e-014
4.43147e-011
-3.69427e-014
8.67679e-012
5.86475e-014
1.70565e-012
6.99441e-015
3.33181e-013
3.91631e-014
5.80144e-014
-2.47996e-014
8.05259e-015
5.02792e-014
-8.63806e-015
-4.04815e-014
-8.26839e-014
3.43267e-014
-1.6831e-012
4.70804e-014
-8.89955e-013
-1.49707e-015
-4.61853e-013
2.42532e-014
1.58185e-012
2.31915e-014
2.04281e-012
-2.32965e-014
-2.66542e-012
1.68851e-012
6.16396e-013
1.98318e-011
1.02141e-014
2.47344e-010
-9.6545e-013
2.30166e-009
-3.3884e-013
2.36967e-008
1.5552e-012
1.89387e-007
-1.74349e-012
1.58931e-006
3.66374e-013
1.07278e-005
5.82201e-013
7.1988e-005
9.05942e-013
0.000400532
2.3781e-012
0.00209437
1.76792e-012
0.00933851
3.18146e-012
0.0349266
2.15827e-013
0.105852
-6.12843e-014
0.259774
-2.64233e-013
0.529244
2.26485e-013
0.882458
5.04929e-013
1.23183
2.93321e-013
1.51575
3.72591e-013
1.68418
4.33875e-013
1.76362
-9.72555e-014
1.86843
-4.18554e-013
1.91946
2.17493e-013
1.90999
2.11164e-013
1.71458
7.7649e-013
1.55545
2.4597e-012
1.33041
3.00759e-012
1.19908
3.00615e-012
1.13766
2.71749e-012
1.12262
1.07681e-012
1.1183
-5.95746e-013
1.08504
-2.08994e-012
0.924804
-3.36919e-012
0.243388
-2.69734e-012
0.0524851
-1.33921e-013
0.00776947
-5.24025e-014
0.00117621
4.71012e-014
0.000182549
-1.38223e-014
2.93296e-005
7.96585e-015
4.92942e-006
2.98372e-014
8.64459e-007
8.06577e-014
1.57706e-007
3.37785e-014
2.96717e-008
3.43614e-014
5.70773e-009
-7.72576e-014
1.11281e-009
-1.95954e-014
2.18123e-010
1.13937e-014
4.28792e-011
-1.93456e-014
8.39294e-012
5.44287e-014
1.64832e-012
2.56878e-014
3.24945e-013
3.5083e-014
5.85148e-014
-5.72598e-014
5.05845e-015
4.71706e-014
-1.1856e-014
-2.63123e-014
-5.57471e-014
3.17749e-014
-2.94964e-012
5.45649e-014
-7.81597e-014
4.60309e-015
-3.49942e-013
2.40042e-014
1.63869e-012
2.09381e-014
9.8499e-013
-2.10049e-014
-3.59801e-012
1.63213e-012
1.16529e-012
1.91861e-011
-5.13367e-013
2.39352e-010
-1.14486e-012
2.22728e-009
-7.11431e-013
2.2931e-008
1.73994e-012
1.83267e-007
-2.15472e-012
1.53796e-006
4.44089e-013
1.03811e-005
6.24834e-013
6.96619e-005
3.5083e-013
0.00038759
2.23599e-012
0.0020267
1.70974e-012
0.00903676
2.87237e-012
0.033798
1.54987e-013
0.102432
1.37668e-014
0.25138
-6.43485e-013
0.512143
4.12559e-013
0.853944
7.52287e-013
1.19203
3.21743e-013
1.46677
5.53557e-013
1.62976
1.90958e-013
1.70663
-1.81188e-013
1.80805
-4.88942e-013
1.85744
1.71529e-013
1.84827
2.9976e-013
1.65918
7.15095e-013
1.50519
2.5121e-012
1.28742
3.22664e-012
1.16033
3.36564e-012
1.1009
2.89146e-012
1.08635
1.39422e-012
1.08217
-3.47944e-013
1.04998
-1.77924e-012
0.894922
-2.80448e-012
0.235523
-2.39647e-012
0.0507892
-1.98008e-013
0.00751842
-6.40044e-014
0.00113821
3.04201e-014
0.000176651
-2.1122e-014
2.83819e-005
1.04083e-014
4.77014e-006
2.14551e-014
8.36527e-007
5.2125e-014
1.5261e-007
3.45557e-014
2.8713e-008
4.50751e-014
5.5233e-009
-7.45931e-014
1.07685e-009
-2.88103e-014
2.11079e-010
2.58404e-014
4.14979e-011
-8.88178e-015
8.12579e-012
7.84511e-014
1.59654e-012
3.4403e-014
3.11387e-013
3.65402e-014
5.45284e-014
-4.45061e-014
6.26712e-015
6.3255e-014
-9.96447e-015
-1.90264e-014
-2.35367e-014
3.21236e-014
-3.01981e-012
4.58691e-014
-2.00728e-013
4.2067e-016
9.54792e-013
2.21264e-014
1.77813e-012
1.88001e-014
1.06937e-012
-2.03908e-014
-3.40528e-012
1.58133e-012
6.37712e-013
1.85691e-011
-9.22817e-013
2.31621e-010
-9.01945e-013
2.15532e-009
-1.31228e-012
2.21901e-008
2.16982e-012
1.77346e-007
-2.14895e-012
1.48826e-006
3.95683e-013
1.00457e-005
6.9722e-014
6.7411e-005
-8.26006e-014
0.000375066
2.25997e-012
0.00196121
1.84697e-012
0.00874476
2.24532e-012
0.032706
4.49862e-013
0.0991218
2.55795e-013
0.243257
-7.27418e-013
0.495595
6.94556e-013
0.826351
5.94635e-013
1.15351
7.34968e-013
1.41938
3.73035e-013
1.5771
2.81331e-013
1.65149
-2.06724e-013
1.74963
-3.40505e-013
1.79742
2.17715e-013
1.78855
4.54303e-013
1.60556
5.54001e-013
1.45655
2.63523e-012
1.24582
3.62099e-012
1.12284
3.76643e-012
1.06532
3.36775e-012
1.05125
2.03748e-012
1.0472
2.46025e-013
1.01605
-9.32365e-013
0.866005
-1.39239e-012
0.227913
-1.19621e-012
0.0491481
-2.24182e-013
0.00727549
-7.99638e-014
0.00110143
1.4766e-014
0.000170943
-1.01585e-014
2.74648e-005
1.66256e-014
4.616e-006
4.14946e-014
8.09497e-007
5.65936e-014
1.47679e-007
2.74225e-014
2.77852e-008
2.43416e-014
5.34483e-009
-9.10105e-014
1.04206e-009
-4.97241e-014
2.04255e-010
5.16254e-015
4.01537e-011
1.76248e-014
7.85925e-012
4.7462e-014
1.54255e-012
2.5438e-014
3.03631e-013
2.35229e-014
5.5468e-014
-1.11577e-014
4.32792e-015
7.3011e-014
-1.21053e-014
-3.33067e-016
-2.45914e-014
3.31588e-014
-2.05524e-012
5.40011e-014
1.28786e-013
4.99817e-015
1.32783e-012
1.98071e-014
1.97709e-012
1.67106e-014
5.84421e-013
-1.76872e-014
-2.76312e-012
1.52868e-012
1.4122e-013
1.79647e-011
-5.53335e-013
2.24136e-010
-6.89226e-013
2.08567e-009
-1.85274e-012
2.14731e-008
2.39941e-012
1.71615e-007
-1.61426e-012
1.44017e-006
-1.66978e-013
9.72111e-006
-3.28626e-013
6.52328e-005
-3.16636e-013
0.000362947
1.25144e-012
0.00189784
1.60227e-012
0.0084622
1.84963e-012
0.0316492
4.45866e-013
0.0959189
7.12763e-013
0.235397
-6.31051e-013
0.479581
1.29541e-012
0.79965
5.08038e-013
1.11624
8.82183e-013
1.37352
6.03073e-013
1.52614
2.4869e-013
1.59813
-2.98206e-013
1.6931
-3.78364e-013
1.73934
1.54099e-013
1.73076
4.91274e-013
1.55368
3.8658e-013
1.40949
2.73215e-012
1.20557
3.80507e-012
1.08656
4.2657e-012
1.0309
4.02178e-012
1.01728
2.77633e-012
1.01336
9.84213e-013
0.983222
-1.70974e-014
0.838023
1.43219e-014
0.220549
2.24654e-013
0.04756
-2.22461e-013
0.0070404
-8.34333e-014
0.00106584
-1.42664e-014
0.000165419
-1.64313e-014
2.65774e-005
-1.54876e-014
4.46685e-006
4.86278e-014
7.8334e-007
3.06144e-014
1.42907e-007
3.45279e-014
2.68874e-008
2.8838e-014
5.17213e-009
-8.68194e-014
1.00839e-009
-3.94962e-014
1.97659e-010
-5.32907e-015
3.88597e-011
2.07334e-014
7.6093e-012
2.294e-014
1.49443e-012
4.14252e-014
2.91182e-013
-2.83384e-014
5.16158e-014
-8.39606e-015
5.11852e-015
7.91034e-014
-9.81637e-015
1.6015e-014
-5.71904e-014
3.09457e-014
-2.41851e-012
4.57147e-014
-4.2899e-013
8.4828e-016
1.33316e-012
1.83534e-014
7.61169e-013
1.557e-014
5.22249e-013
-1.80429e-014
-2.82263e-012
1.4818e-012
7.86926e-013
1.73868e-011
-2.53131e-013
2.16896e-010
-2.30926e-013
2.01828e-009
-2.0588e-012
2.07792e-008
1.54321e-012
1.6607e-007
-1.44018e-012
1.39364e-006
-5.3868e-013
9.407e-006
-6.63913e-013
6.3125e-005
-6.39488e-014
0.00035122
7.4829e-013
0.00183651
1.46905e-012
0.00818877
1.12133e-012
0.0306265
2.16271e-013
0.0928196
1.10933e-012
0.227791
-4.24549e-013
0.464085
1.30873e-012
0.773812
8.59313e-013
1.08017
9.6767e-013
1.32914
6.46372e-013
1.47683
2.81997e-014
1.54649
-3.02425e-013
1.63839
-5.691e-013
1.68314
7.32747e-014
1.67484
4.86611e-013
1.50348
4.31877e-013
1.36395
2.77978e-012
1.16661
4.10127e-012
1.05145
4.64784e-012
0.99759
4.40692e-012
0.98441
3.18434e-012
0.980618
1.37745e-012
0.951452
5.12812e-013
0.810944
8.27893e-013
0.213422
1.07447e-012
0.0460232
-1.46411e-013
0.00681291
-8.43769e-014
0.0010314
-4.55747e-014
0.000160074
-3.46112e-014
2.57186e-005
-2.27596e-014
4.32252e-006
2.16771e-014
7.58029e-007
1.19349e-014
1.3829e-007
4.3604e-014
2.60186e-008
1.85407e-014
5.00501e-009
-7.72715e-014
9.75802e-010
-6.17284e-014
1.9127e-010
-8.99281e-015
3.76007e-011
2.23432e-014
7.35928e-012
1.83464e-014
1.44431e-012
4.14252e-014
2.84644e-013
-4.36456e-014
5.27035e-014
-1.99563e-014
3.21076e-015
6.51978e-014
-1.25206e-014
1.06581e-014
-3.89966e-014
3.31861e-014
-2.50377e-012
5.26961e-014
-4.28102e-013
4.65253e-015
4.1922e-013
1.72718e-014
7.15872e-013
1.36297e-014
-1.04805e-013
-1.59586e-014
-2.82352e-012
1.43238e-012
1.59339e-012
1.68212e-011
-2.78888e-013
2.09887e-010
-8.60645e-013
1.95307e-009
-1.97975e-012
2.01078e-008
9.32587e-013
1.60704e-007
-1.68532e-012
1.34861e-006
-8.95728e-013
9.10304e-006
-1.13243e-012
6.10853e-005
4.09006e-013
0.000339871
1.45217e-013
0.00177717
8.78408e-013
0.00792417
8.60645e-013
0.0296369
6.75016e-014
0.0898204
1.28164e-012
0.22043
-5.43565e-013
0.449089
1.12133e-012
0.748808
9.28146e-013
1.04527
1.17817e-012
1.28619
8.14904e-013
1.42911
-1.15463e-014
1.49652
-3.27072e-013
1.58545
-7.14095e-013
1.62875
-5.4845e-014
1.62072
5.33351e-013
1.4549
4.75175e-013
1.31987
2.91034e-012
1.12892
4.33953e-012
1.01747
4.93805e-012
0.965356
4.53781e-012
0.952601
3.10219e-012
0.948933
1.245e-012
0.920708
1.59095e-013
0.784741
1.51545e-013
0.206526
7.17093e-013
0.0445361
-1.0375e-013
0.00659277
-6.34492e-014
0.000998074
-4.01901e-014
0.000154902
-3.2363e-014
2.48876e-005
-3.07809e-014
4.18285e-006
6.7446e-015
7.33535e-007
1.62648e-014
1.33821e-007
2.64511e-014
2.51779e-008
1.73472e-014
4.84328e-009
-7.86593e-014
9.44273e-010
-4.02733e-014
1.85091e-010
-2.70062e-014
3.63891e-011
3.29736e-014
7.12554e-012
2.2371e-014
1.39844e-012
3.70814e-014
2.73217e-013
-2.63262e-014
4.9419e-014
-3.51386e-014
3.80967e-015
7.32886e-014
-1.13202e-014
-5.1209e-015
-1.40721e-014
3.02527e-014
-3.57758e-012
4.46813e-014
-6.57252e-013
7.1514e-016
-7.4607e-013
1.67388e-014
1.40421e-012
1.37104e-014
2.39808e-014
-1.52859e-014
-3.07132e-012
1.38859e-012
1.92379e-012
1.62795e-011
-1.74971e-013
2.03105e-010
-1.7728e-012
1.88996e-009
-1.74794e-012
1.94581e-008
-9.23706e-014
1.55511e-007
-1.8856e-012
1.30503e-006
-1.47882e-012
8.8089e-006
-1.5965e-012
5.91115e-005
5.9508e-013
0.000328889
-6.55032e-013
0.00171975
8.37996e-013
0.00766813
2.91323e-013
0.0286793
1.8785e-013
0.0869181
1.24567e-012
0.213308
-6.32827e-013
0.434578
9.6545e-013
0.724613
9.4369e-013
1.01149
1.29052e-012
1.24463
9.6767e-013
1.38293
-1.13909e-013
1.44816
-3.56604e-013
1.53422
-6.76348e-013
1.57612
-9.79217e-014
1.56835
5.55445e-013
1.40789
5.45564e-013
1.27723
2.89291e-012
1.09244
4.43789e-012
0.984597
5.11791e-012
0.934163
4.67582e-012
0.921821
2.91556e-012
0.918271
9.77662e-013
0.890958
-6.23279e-013
0.759384
-1.46727e-012
0.199853
-7.21256e-013
0.0430971
-8.48766e-014
0.00637974
-7.53286e-014
0.000965824
-5.92026e-014
0.000149897
-5.60663e-015
2.40834e-005
-5.20417e-014
4.04769e-006
-2.94209e-014
7.09833e-007
1.99285e-014
1.29497e-007
2.44527e-014
2.43644e-008
1.24345e-014
4.68679e-009
-7.17759e-014
9.13762e-010
-2.40641e-014
1.7911e-010
-5.29021e-014
3.52104e-011
1.95399e-014
6.89101e-012
-4.80171e-015
1.35174e-012
2.93376e-014
2.66726e-013
-1.95677e-014
5.01767e-014
-1.39888e-014
2.81047e-015
5.16115e-014
-1.23003e-014
-9.10383e-015
-2.60902e-015
3.29775e-014
-2.89635e-012
5.03582e-014
-2.89546e-013
4.42181e-015
-1.1573e-012
1.5122e-014
5.48894e-013
1.23304e-014
-6.4837e-014
-1.29874e-014
-3.94618e-012
1.34051e-012
1.23457e-012
1.57498e-011
2.36255e-013
1.96543e-010
-1.77369e-012
1.82889e-009
-1.32427e-012
1.88293e-008
-1.02229e-012
1.50486e-007
-1.45928e-012
1.26286e-006
-2.25953e-012
8.52427e-006
-2.00906e-012
5.72015e-005
2.47802e-013
0.000318262
-7.50067e-013
0.00166418
5.01821e-013
0.00742035
1.81188e-013
0.0277526
1.61204e-013
0.0841096
1.56231e-012
0.206415
-3.84137e-013
0.420536
7.59837e-013
0.701199
8.41105e-013
0.978809
1.09068e-012
1.20441
1.14175e-012
1.33825
-5.32907e-014
1.40137
-5.34905e-013
1.48465
-8.56426e-013
1.5252
-8.81517e-014
1.51767
5.02487e-013
1.3624
5.55223e-013
1.23596
3.08331e-012
1.05714
4.48919e-012
0.952783
5.15799e-012
0.903979
4.84246e-012
0.892035
2.82852e-012
0.888599
6.70686e-013
0.86217
-1.43008e-012
0.734847
-3.06433e-012
0.193395
-2.36666e-012
0.0417045
-1.27065e-013
0.0061736
-1.10606e-013
0.000934616
-6.58917e-014
0.000145053
-4.60743e-015
2.33052e-005
-7.43849e-014
3.9169e-006
-1.14631e-014
6.86897e-007
2.73115e-014
1.25313e-007
3.339e-014
2.35771e-008
1.56264e-014
4.53535e-009
-6.43929e-014
8.84236e-010
-2.63123e-014
1.73324e-010
-5.84532e-014
3.40756e-011
9.6867e-015
6.67237e-012
2.13718e-015
1.30897e-012
3.44724e-014
2.56091e-013
-9.88098e-015
4.70739e-014
-1.51268e-015
2.8894e-015
3.747e-014
-1.13199e-014
-1.84019e-014
2.38559e-014
2.9332e-014
-2.79599e-012
4.39098e-014
-3.53495e-013
1.93552e-015
-7.99361e-013
1.42074e-014
5.40901e-013
1.17376e-014
-4.99156e-013
-1.23465e-014
-3.87423e-012
1.30015e-012
1.67688e-012
1.52426e-011
-1.40332e-013
1.90191e-010
-2.24532e-012
1.7698e-009
-1.24434e-012
1.82209e-008
-1.97176e-012
1.45624e-007
-1.04361e-012
1.22206e-006
-2.49933e-012
8.24883e-006
-2.18225e-012
5.53532e-005
2.99316e-013
0.000307978
-7.15428e-013
0.00161041
5.87086e-013
0.00718059
2.98872e-013
0.0268558
1.46549e-013
0.0813918
1.2057e-012
0.199746
-3.4861e-013
0.406948
1.69642e-013
0.678542
1.13598e-012
0.947182
1.17462e-012
1.1655
1.16396e-012
1.295
-1.06137e-013
1.35609
-5.58664e-013
1.43667
-7.05214e-013
1.47591
-2.11164e-013
1.46863
6.23834e-013
1.31838
6.65801e-013
1.19602
3.17102e-012
1.02298
4.47864e-012
0.921996
5.13423e-012
0.874769
4.79439e-012
0.863211
2.69884e-012
0.859887
2.93654e-013
0.834311
-2.30893e-012
0.711103
-4.69169e-012
0.187146
-3.53223e-012
0.040357
-1.59289e-013
0.00597412
-1.05665e-013
0.000904417
-6.09235e-014
0.000140366
-1.15186e-014
2.25522e-005
-7.67719e-014
3.79034e-006
8.24341e-015
6.64702e-007
5.2458e-014
1.21264e-007
1.34337e-014
2.28153e-008
1.00475e-014
4.3888e-009
-3.72757e-014
8.55665e-010
-6.93889e-016
1.67723e-010
-5.15143e-014
3.29721e-011
-4.13003e-014
6.45288e-012
1.08247e-014
1.26574e-012
4.10783e-014
2.49822e-013
-2.35922e-014
4.70446e-014
1.38778e-015
2.64827e-015
5.79536e-014
-1.10485e-014
-8.10463e-015
7.17482e-015
3.25456e-014
-2.30838e-012
4.65231e-014
-2.88658e-013
4.0393e-015
-7.50511e-013
1.28651e-014
8.36664e-013
1.1068e-014
-5.13367e-013
-9.86884e-015
-3.66018e-012
1.25544e-012
1.27098e-012
1.47472e-011
-6.31495e-013
1.84047e-010
-2.27995e-012
1.71261e-009
-1.33404e-012
1.76322e-008
-2.09877e-012
1.40918e-007
-5.31131e-013
1.18257e-006
-2.38831e-012
7.98229e-006
-2.47802e-012
5.35646e-005
3.89022e-013
0.000298027
-8.95284e-013
0.00155837
5.72875e-013
0.00694857
4.20552e-013
0.0259881
7.28306e-014
0.0787619
8.11795e-013
0.193292
-5.90195e-013
0.393798
8.9706e-014
0.656617
1.0969e-012
0.916577
1.53433e-012
1.12784
1.26654e-012
1.25316
-4.24105e-014
1.31227
-4.86278e-013
1.39025
-8.34888e-013
1.42822
-2.70006e-013
1.42118
6.91891e-013
1.27578
6.86562e-013
1.15737
3.12517e-012
0.989927
4.35152e-012
0.892205
4.99001e-012
0.846504
4.58e-012
0.835319
2.40918e-012
0.832102
-7.83817e-014
0.807353
-3.16325e-012
0.688125
-6.0717e-012
0.181099
-4.34819e-012
0.0390529
-1.86379e-013
0.00578108
-1.12577e-013
0.000875193
-6.65856e-014
0.000135831
-3.33344e-014
2.18235e-005
-6.87228e-014
3.66786e-006
9.27036e-015
6.43224e-007
4.77673e-014
1.17345e-007
-2.16216e-014
2.20781e-008
-3.02536e-015
4.24699e-009
-3.48332e-014
8.28016e-010
1.91236e-014
1.62304e-010
-4.74343e-014
3.19094e-011
-6.48648e-014
6.2481e-012
1.94844e-014
1.2255e-012
3.65541e-014
2.39961e-013
-2.82552e-014
4.43248e-014
1.01585e-014
2.33342e-015
5.85643e-014
-1.04357e-014
-1.113e-014
1.29063e-015
2.86945e-014
-2.54197e-012
4.20978e-014
-5.59552e-014
2.66497e-015
-8.52651e-013
1.12714e-014
5.73763e-013
1.03901e-014
-1.19105e-012
-9.42822e-015
-3.47367e-012
1.21676e-012
6.79456e-013
1.42717e-011
-1.82432e-012
1.78098e-010
-2.38476e-012
1.65727e-009
-9.97424e-013
1.70624e-008
-2.04903e-012
1.36365e-007
-4.83169e-013
1.14436e-006
-2.4194e-012
7.72437e-006
-2.57483e-012
5.18338e-005
-1.00364e-013
0.000288397
-4.84057e-013
0.00150802
6.23501e-013
0.00672404
4.01457e-013
0.0251483
2.39808e-013
0.0762169
3.72591e-013
0.187046
-6.02629e-013
0.381074
1.38556e-013
0.6354
7.26086e-013
0.88696
1.65512e-012
1.09139
1.36247e-012
1.21267
1.06581e-013
1.26987
-5.07372e-013
1.34533
-8.83738e-013
1.38208
-2.75335e-013
1.37526
7.73603e-013
1.23455
6.39044e-013
1.11998
3.05789e-012
0.95794
4.2778e-012
0.863376
4.9174e-012
0.819151
4.44522e-012
0.808328
2.31226e-012
0.805215
-2.55351e-013
0.781265
-3.36109e-012
0.665891
-6.11133e-012
0.175248
-4.14835e-012
0.0377911
-2.22267e-013
0.00559428
-9.95592e-014
0.000846914
-4.20219e-014
0.000131442
-1.66533e-014
2.11183e-005
-4.68237e-014
3.54935e-006
1.34059e-014
6.2244e-007
5.94524e-014
1.13554e-007
-6.26166e-014
2.13647e-008
-1.48492e-014
4.10976e-009
-1.45994e-014
8.01261e-010
1.62093e-014
1.57059e-010
-6.44484e-014
3.08767e-011
-8.15181e-014
6.04282e-012
1.15741e-014
1.18491e-012
4.01901e-014