/*--------------------------------*- C++ -*----------------------------------*\
| =========                 |                                                 |
| \\      /  F ield         | OpenFOAM: The Open Source CFD Toolbox           |
|  \\    /   O peration     | Version:  5.x                                   |
|   \\  /    A nd           | Web:      www.OpenFOAM.org                      |
|    \\/     M anipulation  |                                                 |
\*---------------------------------------------------------------------------*/
/*   Windows 32 and 64 bit porting by blueCAPE: http://www.bluecape.com.pt   *\
|  Based on Windows porting (2.0.x v4) by Symscape: http://www.symscape.com   |
\*---------------------------------------------------------------------------*/
FoamFile
{
    version     2.0;
    format      ascii;
    class       surfaceScalarField;
    location    "0.002";
    object      phi_0;
}
// * * * * * * * * * * * * * * * * * * * * * * * * * * * * * * * * * * * * * //

dimensions      [1 0 -1 0 0 0 0];

internalField   nonuniform List<scalar> 
19740
(
4.16785e-014
2.99316e-013
5.41416e-014
-1.58495e-012
-7.56686e-015
1.24789e-013
3.84337e-014
-8.68638e-013
4.37818e-014
6.59917e-013
-3.80989e-014
-7.32303e-013
2.24127e-012
-6.76792e-013
2.63866e-011
9.12603e-013
3.2928e-010
-7.82929e-013
3.06547e-009
2.03837e-013
3.15811e-008
-2.96208e-013
2.52513e-007
3.8769e-013
2.12043e-006
-3.01981e-014
1.43196e-005
-5.00489e-013
9.6152e-005
8.81961e-013
0.000535248
5.20473e-013
0.00280067
1.39444e-012
0.0124951
5.01377e-013
0.046772
3.72147e-013
0.141856
2.62235e-013
0.348396
1.8674e-013
0.710198
-4.30989e-013
1.18488
-1.80966e-013
1.65473
-2.10054e-013
2.03665
-7.24976e-013
2.26321
-1.92291e-013
2.37016
6.09512e-014
2.51121
2.4758e-014
2.57985
1.33005e-013
2.56668
9.35918e-014
2.30339
3.38563e-013
2.0899
3.37508e-014
1.78729
6.20781e-013
1.61111
6.55032e-013
1.52878
7.08211e-013
1.50922
6.95555e-013
1.50305
6.50591e-013
1.45768
8.45657e-013
1.24084
1.13376e-012
0.324398
1.04089e-012
0.0696983
-2.40641e-014
0.0103084
-3.51108e-015
0.00155987
-5.96051e-014
0.000242143
-3.68594e-014
3.89114e-005
1.29619e-014
6.54116e-006
-4.88914e-014
1.14737e-006
4.98768e-014
2.09352e-007
-7.00967e-014
3.93911e-008
-2.41474e-015
7.5769e-009
-4.61159e-014
1.47698e-009
5.95357e-015
2.89431e-010
3.91631e-014
5.68807e-011
1.36696e-014
1.11303e-011
1.73472e-015
2.18442e-012
-2.54935e-014
4.29541e-013
1.90542e-014
8.28695e-014
-3.69149e-015
1.93652e-014
-1.86101e-014
-7.13665e-015
4.64906e-015
-8.77354e-014
4.31599e-014
3.14415e-013
4.97406e-014
-1.98597e-012
-9.32761e-015
1.21947e-012
3.79731e-014
3.14415e-013
4.20445e-014
1.77813e-012
-3.7876e-014
-5.67546e-013
2.17006e-012
9.60121e-013
2.55359e-011
1.35136e-012
3.18641e-010
-1.08624e-012
2.96642e-009
-2.42917e-013
3.05606e-008
-2.10942e-013
2.44354e-007
7.73603e-013
2.05191e-006
9.54792e-014
1.38569e-005
-8.68638e-013
9.30452e-005
1.45128e-012
0.000517953
2.32259e-013
0.00271017
1.21014e-012
0.0120913
1.05738e-012
0.0452607
1.95399e-014
0.137272
-1.69198e-013
0.337139
-1.32783e-013
0.68725
-3.22631e-013
1.14659
1.91624e-013
1.60126
2.04281e-013
1.97085
-8.9817e-013
2.19008
-4.44644e-013
2.29358
-6.17284e-014
2.43007
-4.4631e-014
2.49649
1.43552e-013
2.48375
1.27676e-013
2.22896
5.0393e-013
2.02237
7.10765e-013
1.72954
1.02679e-012
1.55905
9.83547e-013
1.47938
7.89091e-013
1.46046
3.84914e-013
1.45448
1.25122e-013
1.41058
1.89682e-013
1.20074
2.56184e-013
0.313916
7.06157e-013
0.0674462
-2.32592e-014
0.00997533
-6.31439e-015
0.00150947
-3.6679e-014
0.000234319
-2.86299e-014
3.76541e-005
2.45637e-014
6.3298e-006
-1.00878e-013
1.11029e-006
1.10856e-013
2.02587e-007
-1.10106e-013
3.81183e-008
-5.96745e-015
7.33207e-009
-6.03961e-014
1.42926e-009
5.68989e-015
2.80077e-010
6.04794e-014
5.50415e-011
1.72917e-014
1.07693e-011
1.61815e-014
2.11288e-012
-1.65423e-014
4.16544e-013
5.62883e-014
8.17848e-014
7.71605e-015
1.76304e-014
-4.24244e-014
-1.12293e-014
-3.56659e-014
-1.10967e-013
3.51897e-014
-5.69322e-013
5.32621e-014
-6.98996e-013
-3.72185e-015
1.39133e-012
3.6182e-014
1.26255e-012
3.92568e-014
2.70006e-012
-3.33128e-014
-4.74731e-013
2.10003e-012
1.43352e-012
2.47055e-011
1.27853e-012
3.08344e-010
-6.49258e-013
2.87057e-009
4.6807e-013
2.95731e-008
-3.13527e-013
2.36459e-007
3.5616e-013
1.98561e-006
-1.62981e-013
1.34092e-005
-1.39178e-012
9.00387e-005
1.4464e-012
0.000501217
4.61853e-013
0.0026226
1.30962e-012
0.0117006
1.79678e-012
0.0437982
-1.33227e-013
0.132837
-1.67866e-013
0.326245
1.16795e-013
0.665043
-3.41727e-013
1.10954
2.54685e-013
1.54952
1.59428e-013
1.90716
-6.02185e-013
2.11931
-4.19442e-013
2.21947
-1.06692e-013
2.35155
-4.4631e-014
2.41583
2.7589e-013
2.40349
1.40665e-013
2.15694
5.74873e-013
1.95702
1.09951e-012
1.67366
1.00425e-012
1.50868
9.07052e-013
1.43158
4.41369e-013
1.41327
-4.86666e-013
1.40749
-1.03029e-012
1.365
-1.30596e-012
1.16194
-1.58978e-012
0.303772
-6.39377e-013
0.0652669
-4.52693e-014
0.00965301
1.23512e-015
0.00146069
-6.93889e-015
0.000226748
-4.10644e-014
3.64374e-005
1.31978e-014
6.12527e-006
-7.67858e-014
1.07442e-006
1.12063e-013
1.96041e-007
-9.91152e-014
3.68866e-008
-2.81719e-015
7.09516e-009
-5.19584e-014
1.38308e-009
5.38458e-015
2.71029e-010
2.96707e-014
5.32639e-011
2.43972e-014
1.04231e-011
-4.95437e-015
2.04713e-012
2.12608e-014
4.00963e-013
5.11813e-014
7.55845e-014
3.08503e-014
1.56893e-014
-4.18138e-014
-8.46155e-015
-2.95181e-014
-1.15241e-013
4.05734e-014
-9.32143e-013
4.86269e-014
-9.93428e-013
-7.36911e-015
9.72555e-013
3.47127e-014
9.34808e-013
3.77311e-014
1.68621e-012
-3.53632e-014
-1.62181e-012
2.03005e-012
1.46905e-012
2.39086e-011
1.54143e-012
2.98382e-010
1.45661e-013
2.77782e-009
1.36868e-012
2.86176e-008
-8.6553e-013
2.28818e-007
3.00648e-013
1.92145e-006
-1.6076e-013
1.29759e-005
-1.21414e-012
8.71293e-005
1.94111e-012
0.000485022
-2.83773e-013
0.00253786
9.67226e-013
0.0113226
2.31859e-012
0.042383
9.68114e-014
0.128544
-8.88178e-015
0.315704
-3.41949e-014
0.643554
-3.60378e-013
1.07369
1.93401e-013
1.49946
3.20188e-013
1.84554
-4.11227e-013
2.05083
-1.70752e-013
2.14775
-2.26597e-013
2.27556
-2.55684e-013
2.33777
1.43885e-013
2.32583
2.47691e-013
2.08725
4.57301e-013
1.89378
8.84681e-013
1.61958
1.12688e-012
1.45993
8.66696e-013
1.38532
3.03646e-013
1.3676
-6.49647e-013
1.36201
-1.39855e-012
1.32089
-1.84175e-012
1.1244
-2.21778e-012
0.293957
-1.38178e-012
0.063158
-1.18822e-013
0.0093411
-2.72005e-014
0.00141349
-1.38639e-014
0.000219421
-3.31957e-014
3.52601e-005
2.56184e-014
5.92735e-006
-7.58421e-014
1.0397e-006
1.1427e-013
1.89707e-007
-7.3927e-014
3.56947e-008
-1.50713e-014
6.8659e-009
-1.20126e-013
1.33838e-009
3.05311e-016
2.62268e-010
-2.88658e-015
5.15406e-011
2.69507e-014
1.00846e-011
-5.41234e-016
1.97895e-012
2.38004e-014
3.88635e-013
3.99958e-014
7.48472e-014
4.55608e-014
1.28929e-014
1.03528e-014
-1.3412e-014
-6.50174e-014
-6.09512e-014
3.39147e-014
-1.15818e-012
5.287e-014
-9.4591e-013
-2.55004e-016
1.18883e-012
3.36692e-014
8.49987e-013
3.43042e-014
8.15792e-013
-2.94539e-014
-2.1716e-012
1.9675e-012
1.38778e-012
2.31328e-011
-4.01901e-013
2.88738e-010
1.23901e-013
2.68806e-009
8.34888e-013
2.76929e-008
-6.90115e-013
2.21425e-007
4.60076e-013
1.85936e-006
-2.4114e-013
1.25566e-005
-6.5814e-013
8.4314e-005
2.33236e-012
0.00046935
-5.71987e-013
0.00245586
1.4202e-012
0.0109567
2.71028e-012
0.0410135
-4.79616e-014
0.124391
-2.79776e-014
0.305503
-1.0747e-013
0.62276
-6.01519e-013
1.039
2.29816e-013
1.451
4.82947e-013
1.78591
-2.00728e-013
1.98457
-1.32783e-013
2.07835
-8.77076e-014
2.20203
-3.45501e-013
2.26223
6.81677e-014
2.25068
1.10134e-013
2.0198
4.35652e-013
1.83259
6.25111e-013
1.56724
1.39011e-012
1.41275
1.23357e-012
1.34056
8.47877e-013
1.32341
2.04392e-013
1.318
-6.30662e-013
1.27821
-9.49962e-013
1.08807
-1.04178e-012
0.284459
-8.42104e-013
0.0611172
-1.51518e-013
0.00903927
-4.34652e-014
0.00136782
-4.62547e-014
0.000212331
-5.62467e-014
3.41207e-005
2.61458e-014
5.73583e-006
-6.31578e-014
1.0061e-006
9.90735e-014
1.83577e-007
-1.92762e-014
3.45413e-008
-3.54161e-014
6.64405e-009
-1.06734e-013
1.29514e-009
2.48412e-015
2.53798e-010
-3.41255e-014
4.98775e-011
3.20577e-015
9.76168e-012
2.79637e-014
1.91829e-012
2.52021e-014
3.74559e-013
5.02237e-014
6.86838e-014
4.07729e-014
1.21071e-014
1.32394e-014
-1.00315e-014
-6.87922e-014
-2.52992e-014
3.96471e-014
-1.61116e-012
4.71533e-014
-1.78968e-012
-6.5746e-015
6.22169e-013
3.00706e-014
1.62359e-012
3.22875e-014
1.41931e-012
-2.95736e-014
-1.13731e-012
1.90285e-012
1.04672e-012
2.23888e-011
-1.11822e-012
2.79409e-010
-5.86642e-013
2.6012e-009
8.08242e-013
2.6798e-008
1.85629e-013
2.1427e-007
6.70575e-014
1.79928e-006
2.14495e-013
1.21509e-005
-4.61853e-013
8.15896e-005
2.27551e-012
0.000454184
1.05249e-013
0.0023765
1.65157e-012
0.0106027
2.76001e-012
0.0396883
1.47882e-013
0.120371
-1.71863e-013
0.295631
-8.92619e-014
0.602637
-4.80505e-013
1.00543
1.37668e-014
1.40412
6.26832e-013
1.7282
-5.12923e-014
1.92044
-8.63754e-014
2.0112
-1.81966e-013
2.13088
-3.59046e-013
2.18913
-3.43059e-014
2.17796
7.69385e-014
1.95454
4.55747e-013
1.77338
7.38409e-013
1.5166
1.90631e-012
1.3671
1.93107e-012
1.29724
1.7944e-012
1.28065
1.19604e-012
1.27541
2.59848e-013
1.23691
1.02196e-013
1.05291
4.88665e-013
0.275267
4.44089e-015
0.0591424
-1.05804e-013
0.00874719
-5.60663e-014
0.00132362
-1.73472e-014
0.00020547
-7.57172e-014
3.30182e-005
3.04479e-014
5.55049e-006
-2.53131e-014
9.73595e-007
8.26977e-014
1.77645e-007
2.69645e-014
3.34252e-008
-2.87825e-014
6.42937e-009
-1.16185e-013
1.25329e-009
-1.96787e-014
2.45594e-010
-2.15938e-014
4.82634e-011
-1.39472e-014
9.44345e-012
3.9288e-014
1.85367e-012
-1.48354e-014
3.64506e-013
4.67681e-014
6.79617e-014
2.83523e-014
9.37358e-015
-3.01148e-015
-1.2183e-014
-5.92998e-014
-2.04836e-014
3.36233e-014
-1.34648e-012
5.32734e-014
-1.17595e-012
1.27762e-015
9.5346e-013
3.07792e-014
1.9611e-012
3.08096e-014
1.17106e-012
-2.6746e-014
-1.80256e-012
1.84077e-012
1.11244e-012
2.16622e-011
-1.55609e-012
2.70381e-010
-1.08269e-012
2.51715e-009
2.23821e-013
2.59321e-008
4.4631e-013
2.07346e-007
-1.26699e-012
1.74115e-006
2.71339e-013
1.17583e-005
3.30402e-013
7.89533e-005
2.06191e-012
0.000439508
7.40297e-013
0.00229971
1.56986e-012
0.0102601
3.14326e-012
0.0384058
1.72751e-013
0.116482
-5.32907e-014
0.286079
-1.40776e-013
0.583164
-6.42597e-013
0.972938
-1.09468e-013
1.35875
7.30305e-013
1.67236
7.08322e-014
1.85839
7.21645e-014
1.94621
-3.52163e-013
2.06203
-5.37459e-013
2.11839
-1.69864e-014
2.10758
1.07359e-013
1.89138
5.00155e-013
1.71608
1.15441e-012
1.4676
2.37599e-012
1.32293
2.41873e-012
1.25533
2.38065e-012
1.23927
1.59017e-012
1.2342
6.20004e-013
1.19694
4.90941e-013
1.01889
8.55815e-013
0.266373
5.03764e-013
0.0572313
-1.73195e-014
0.00846455
-5.76483e-014
0.00128085
-6.16174e-015
0.000198831
-5.02931e-014
3.19513e-005
4.01068e-015
5.37114e-006
-7.97973e-015
9.42136e-007
1.09884e-013
1.71905e-007
6.20892e-014
3.23452e-008
-1.9762e-014
6.22162e-009
-9.09411e-014
1.2128e-009
-8.75688e-015
2.37663e-010
2.74919e-014
4.67077e-011
-5.7454e-015
9.14153e-012
3.5083e-014
1.79674e-012
-1.14631e-014
3.50082e-013
2.93099e-014
6.24657e-014
4.08285e-014
1.04344e-014
3.05311e-015
-9.01796e-015
-6.71824e-014
-3.79835e-014
3.71491e-014
-2.09432e-012
4.70422e-014
-9.97424e-013
-3.42261e-015
6.83897e-014
2.68405e-014
1.42419e-012
2.72048e-014
7.66498e-013
-2.84538e-014
-2.35012e-012
1.78048e-012
5.99076e-013
2.09662e-011
-5.21805e-013
2.61647e-010
-8.47322e-013
2.43582e-009
-2.50466e-013
2.50942e-008
9.73888e-013
2.00647e-007
-1.56186e-012
1.68489e-006
5.42677e-013
1.13783e-005
6.29718e-013
7.64022e-005
1.66134e-012
0.000425307
1.803e-012
0.0022254
1.56763e-012
0.00992856
3.15259e-012
0.0371649
-3.7037e-013
0.112718
-1.42109e-013
0.276835
-4.71179e-013
0.564321
-4.00568e-013
0.941501
-5.28466e-014
1.31485
4.865e-013
1.61832
3.57492e-014
1.79834
3.75255e-014
1.88333
-2.74336e-013
1.9954
-5.82423e-013
2.04994
4.88498e-015
2.03948
1.37779e-013
1.83027
7.35856e-013
1.66063
1.68987e-012
1.42018
2.57994e-012
1.28018
2.71705e-012
1.21476
2.63817e-012
1.19922
1.40093e-012
1.19432
3.23408e-013
1.15827
-2.49412e-013
0.985965
-4.72344e-013
0.257766
-2.37921e-013
0.0553821
1.32394e-014
0.00819104
-8.84293e-014
0.00123947
1.68199e-014
0.000192407
-1.45994e-014
3.09189e-005
-8.99281e-015
5.19759e-006
1.88738e-015
9.11694e-007
9.84074e-014
1.66351e-007
5.58997e-014
3.13e-008
1.37113e-014
6.02059e-009
-5.93969e-014
1.17361e-009
-1.55431e-015
2.29979e-010
3.54439e-014
4.51944e-011
-2.06501e-014
8.84297e-012
5.51226e-014
1.73633e-012
-6.85563e-015
3.41693e-013
3.11973e-014
6.1924e-014
2.22183e-014
7.17612e-015
2.61319e-014
-1.05302e-014
-5.47479e-014
-6.50591e-014
3.35756e-014
-1.71863e-012
5.41156e-014
-6.82121e-013
2.50581e-015
-5.02709e-013
2.62498e-014
1.84741e-012
2.67971e-014
1.32561e-012
-2.46079e-014
-2.15117e-012
1.72218e-012
4.79172e-013
2.02839e-011
4.3654e-013
2.53193e-010
-6.00853e-013
2.35711e-009
-3.49054e-013
2.42834e-008
1.20393e-012
1.94163e-007
-1.77058e-012
1.63044e-006
4.75175e-013
1.10107e-005
9.09495e-013
7.39334e-005
1.27764e-012
0.000411564
2.24887e-012
0.0021535
1.78435e-012
0.00960775
3.24452e-012
0.035964
-1.5099e-013
0.109076
-1.45661e-013
0.26789
-1.58984e-013
0.546087
2.06057e-013
0.911079
-4.57412e-014
1.27236
4.83613e-013
1.56603
2.57128e-013
1.74023
3.15081e-013
1.82247
-5.63993e-014
1.93092
-4.43756e-013
1.98371
8.9373e-014
1.97358
1.19904e-013
1.77113
8.30336e-013
1.60697
2.21212e-012
1.37429
2.85294e-012
1.23882
2.85694e-012
1.17551
2.7095e-012
1.16047
1.13176e-012
1.15573
-2.81553e-013
1.12084
-1.47032e-012
0.954107
-2.46708e-012
0.249437
-1.61476e-012
0.0535926
-7.35523e-015
0.00792637
-6.17006e-014
0.00119942
4.04954e-014
0.000186189
-1.9762e-014
2.99199e-005
-1.16018e-014
5.02965e-006
3.30846e-014
8.82235e-007
9.52294e-014
1.60975e-007
5.31797e-014
3.02887e-008
2.84911e-014
5.82605e-009
-5.90084e-014
1.13569e-009
1.20459e-014
2.22552e-010
2.47857e-014
4.37383e-011
-3.62349e-014
8.5606e-012
5.79398e-014
1.68221e-012
6.43929e-015
3.28513e-013
4.03566e-014
5.7103e-014
-2.4411e-014
7.87911e-015
4.99462e-014
-8.66711e-015
-4.00235e-014
-8.28504e-014
3.42538e-014
-1.67066e-012
4.69989e-014
-8.53539e-013
-1.53436e-015
-4.56524e-013
2.42376e-014
1.6156e-012
2.31074e-014
2.02771e-012
-2.47883e-014
-2.637e-012
1.66915e-012
6.04405e-013
1.96317e-011
-1.33227e-015
2.45013e-010
-9.10827e-013
2.28095e-009
-3.46834e-013
2.34987e-008
1.54143e-012
1.87889e-007
-1.7657e-012
1.57776e-006
3.68594e-013
1.06549e-005
5.92859e-013
7.15445e-005
8.97504e-013
0.000398266
2.40474e-012
0.00208391
1.77591e-012
0.0092973
3.19567e-012
0.0348019
2.30926e-013
0.105552
-6.35048e-014
0.259234
-2.57128e-013
0.528442
2.24709e-013
0.88164
4.97824e-013
1.23125
2.77112e-013
1.51543
3.67262e-013
1.684
4.24327e-013
1.76358
-1.02363e-013
1.86853
-4.19886e-013
1.91961
2.21712e-013
1.90981
2.06613e-013
1.7139
7.80487e-013
1.55504
2.47902e-012
1.32988
3.03391e-012
1.19879
3.0278e-012
1.13753
2.73581e-012
1.12298
1.08313e-012
1.11839
-5.94746e-013
1.08462
-2.09993e-012
0.923277
-3.38829e-012
0.241377
-2.68008e-012
0.0518609
-1.2948e-013
0.00767025
-5.13201e-014
0.00116066
4.77673e-014
0.000180173
-1.24345e-014
2.89531e-005
6.63358e-015
4.86713e-006
2.93099e-014
8.53728e-007
8.0741e-014
1.55774e-007
3.26128e-014
2.931e-008
3.33622e-014
5.6378e-009
-7.69662e-014
1.09899e-009
-1.82354e-014
2.15357e-010
1.19765e-014
4.23215e-011
-1.92762e-014
8.28052e-012
5.45536e-014
1.62566e-012
2.57711e-014
3.20418e-013
3.53051e-014
5.76175e-014
-5.69683e-014
4.90667e-015
4.68098e-014
-1.18985e-014
-2.77278e-014
-5.61079e-014
3.17381e-014
-2.93277e-012
5.44634e-014
-5.86198e-014
4.54758e-015
-3.69482e-013
2.39799e-014
1.65556e-012
2.08696e-014
9.83214e-013
-2.24473e-014
-3.58469e-012
1.61341e-012
1.15508e-012
1.89924e-011
-5.35127e-013
2.37096e-010
-1.09024e-012
2.20724e-009
-7.20313e-013
2.27394e-008
1.7546e-012
1.81818e-007
-2.14673e-012
1.52678e-006
4.36984e-013
1.03106e-005
6.21725e-013
6.92327e-005
3.41061e-013
0.000385397
2.23288e-012
0.00201658
1.7053e-012
0.00899689
2.89102e-012
0.0336774
1.54543e-013
0.102141
2.13163e-014
0.250857
-6.46594e-013
0.511366
4.2677e-013
0.853152
7.57616e-013
1.19146
3.18634e-013
1.46646
5.44897e-013
1.62959
1.72751e-013
1.7066
-1.91402e-013
1.80816
-4.93383e-013
1.85758
1.69864e-013
1.8481
2.95541e-013
1.65852
7.18536e-013
1.5048
2.53197e-012
1.28691
3.25295e-012
1.16005
3.3874e-012
1.10077
2.89613e-012
1.08669
1.38545e-012
1.08225
-3.70148e-013
1.04958
-1.82959e-012
0.893444
-2.89302e-012
0.233577
-2.44393e-012
0.0501851
-1.95788e-013
0.00742241
-6.14786e-014
0.00112316
3.13083e-014
0.000174352
-1.95399e-014
2.80176e-005
9.54792e-015
4.70986e-006
2.17604e-014
8.26142e-007
5.24025e-014
1.50741e-007
3.44169e-014
2.83629e-008
4.41591e-014
5.45563e-009
-7.35245e-014
1.06348e-009
-2.81025e-014
2.08402e-010
2.70894e-014
4.09582e-011
-8.61811e-015
8.017e-012
7.99222e-014
1.57461e-012
3.48194e-014
3.06997e-013
3.61794e-014
5.36615e-014
-4.34652e-014
6.10102e-015
6.24084e-014
-9.98897e-015
-1.94705e-014
-2.38559e-014
3.20711e-014
-3.02958e-012
4.5759e-014
-1.81188e-013
3.87711e-016
9.46798e-013
2.21117e-014
1.77103e-012
1.87099e-014
1.06493e-012
-2.18124e-014
-3.44791e-012
1.5632e-012
6.50147e-013
1.83818e-011
-9.31699e-013
2.29438e-010
-8.84182e-013
2.13593e-009
-1.31983e-012
2.20047e-008
2.20446e-012
1.75943e-007
-2.14095e-012
1.47745e-006
3.85914e-013
9.97746e-006
6.08402e-014
6.69957e-005
-9.37028e-014
0.000372944
2.24709e-012
0.00195142
1.84919e-012
0.00870618
2.28839e-012
0.0325892
4.49862e-013
0.0988406
2.80664e-013
0.242752
-7.12763e-013
0.494843
6.98996e-013
0.825585
5.92859e-013
1.15296
7.29417e-013
1.41908
3.62821e-013
1.57693
2.72671e-013
1.65146
-2.10276e-013
1.74973
-3.46279e-013
1.79756
2.14162e-013
1.78838
4.47309e-013
1.60493
5.62217e-013
1.45617
2.65776e-012
1.24533
3.63465e-012
1.12257
3.7742e-012
1.0652
3.35099e-012
1.05158
2.01283e-012
1.04728
2.11609e-013
1.01566
-9.87987e-013
0.864575
-1.48698e-012
0.22603
-1.27903e-012
0.0485636
-2.24626e-013
0.00718258
-7.85483e-014
0.00108687
1.50158e-014
0.000168718
-1.02141e-014
2.71123e-005
1.65978e-014
4.55767e-006
4.09117e-014
7.99448e-007
5.72875e-014
1.4587e-007
2.7367e-014
2.74464e-008
2.41196e-014
5.27935e-009
-9.07052e-014
1.02912e-009
-4.94327e-014
2.01665e-010
5.91194e-015
3.96314e-011
1.72917e-014
7.75397e-012
4.90025e-014
1.52133e-012
2.55351e-014
2.99384e-013
2.25236e-014
5.46173e-014
-1.11716e-014
4.15943e-015
7.22061e-014
-1.21173e-014
1.38778e-016
-2.40086e-014
3.31172e-014
-2.06679e-012
5.38883e-014
1.28786e-013
4.95133e-015
1.29674e-012
1.97889e-014
1.98597e-012
1.66074e-014
5.71099e-013
-1.90351e-014
-2.75602e-012
1.51116e-012
1.73195e-013
1.77834e-011
-5.80869e-013
2.22024e-010
-6.9722e-013
2.06691e-009
-1.86517e-012
2.12937e-008
2.42784e-012
1.70258e-007
-1.63025e-012
1.42971e-006
-1.58096e-013
9.65507e-006
-3.29514e-013
6.48309e-005
-3.2907e-013
0.000360893
1.24079e-012
0.00188836
1.60405e-012
0.00842486
1.8705e-012
0.0315362
4.57412e-013
0.0956469
7.31415e-013
0.234908
-6.28386e-013
0.478854
1.30562e-012
0.798909
5.08482e-013
1.11571
8.82183e-013
1.37322
6.04183e-013
1.52598
2.49356e-013
1.59809
-3.00648e-013
1.69319
-3.81695e-013
1.73948
1.52878e-013
1.7306
4.89386e-013
1.55307
3.91465e-013
1.40912
2.7478e-012
1.20509
3.81384e-012
1.0863
4.26947e-012
1.03079
4.01701e-012
1.0176
2.75968e-012
1.01344
9.55791e-013
0.982845
-5.01821e-014
0.836639
-4.02456e-014
0.218727
1.31839e-013
0.0469944
-2.2457e-013
0.00695049
-8.27116e-014
0.00105175
-1.25455e-014
0.000163266
-1.77358e-014
2.62362e-005
-1.52933e-014
4.41041e-006
4.78229e-014
7.73616e-007
3.05311e-014
1.41156e-007
3.38896e-014
2.65596e-008
2.79776e-014
5.10876e-009
-8.6986e-014
9.95865e-010
-3.87745e-014
1.95152e-010
-5.07927e-015
3.83543e-011
1.98175e-014
7.5074e-012
2.31204e-014
1.47388e-012
4.12032e-014
2.87071e-013
-2.91572e-014
5.08031e-014
-8.90954e-015
4.96955e-015
7.80903e-014
-9.84195e-015
1.6237e-014
-5.70793e-014
3.09097e-014
-2.41762e-012
4.56085e-014
-4.6807e-013
8.12284e-016
1.35891e-012
1.83417e-014
7.84262e-013
1.54946e-014
5.00044e-013
-1.93612e-014
-2.82974e-012
1.46483e-012
8.13571e-013
1.72114e-011
-2.85993e-013
2.14851e-010
-2.23821e-013
2.00012e-009
-2.08633e-012
2.06056e-008
1.56763e-012
1.64757e-007
-1.46771e-012
1.38351e-006
-5.29798e-013
9.34309e-006
-6.67022e-013
6.27361e-005
-8.30447e-014
0.000349232
7.41185e-013
0.00182735
1.45395e-012
0.00815264
1.13287e-012
0.0305172
2.32259e-013
0.0925563
1.11156e-012
0.227317
-4.24993e-013
0.463381
1.31051e-012
0.773094
8.59757e-013
1.07966
9.77884e-013
1.32885
6.5703e-013
1.47667
3.37508e-014
1.54646
-3.00648e-013
1.63848
-5.65992e-013
1.68327
7.60503e-014
1.67468
4.84612e-013
1.50289
4.35207e-013
1.36359
2.78866e-012
1.16615
4.09728e-012
1.0512
4.64861e-012
0.997479
4.42002e-012
0.984719
3.18434e-012
0.980693
1.37323e-012
0.951087
5.11147e-013
0.809605
8.23452e-013
0.211659
1.04328e-012
0.0454759
-1.51074e-013
0.00672591
-8.30169e-014
0.00101776
-4.44367e-014
0.000157991
-3.54161e-014
2.53885e-005
-2.26485e-014
4.2679e-006
2.17049e-014
7.48619e-007
1.19904e-014
1.36595e-007
4.33265e-014
2.57014e-008
1.83464e-014
4.94368e-009
-7.7105e-014
9.63686e-010
-6.04516e-014
1.88844e-010
-8.46545e-015
3.71117e-011
2.09832e-014
7.26069e-012
1.81521e-014
1.42442e-012
4.06897e-014
2.80667e-013
-4.43395e-014
5.19146e-014
-2.04142e-014
3.07805e-015
6.51562e-014
-1.25423e-014
1.03806e-014
-3.86496e-014
3.31076e-014
-2.48868e-012
5.26593e-014
-4.20997e-013
4.60439e-015
4.08562e-013
1.7251e-014
7.47846e-013
1.35595e-014
-1.28786e-013
-1.72414e-014
-2.84661e-012
1.41595e-012
1.6529e-012
1.66514e-011
-2.77112e-013
2.07909e-010
-8.49987e-013
1.93549e-009
-2.00373e-012
1.99398e-008
9.52127e-013
1.59433e-007
-1.70575e-012
1.33881e-006
-8.79741e-013
9.0412e-006
-1.112e-012
6.0709e-005
3.79252e-013
0.000337948
1.46549e-013
0.0017683
8.64642e-013
0.00788921
8.82405e-013
0.0295311
7.99361e-014
0.0895656
1.27809e-012
0.219972
-5.37792e-013
0.448408
1.11289e-012
0.748114
9.32587e-013
1.04477
1.19638e-012
1.28591
8.17124e-013
1.42896
-8.65974e-015
1.49649
-3.20854e-013
1.58554
-7.07878e-013
1.62888
-4.91829e-014
1.62057
5.35683e-013
1.45433
4.78395e-013
1.31953
2.91167e-012
1.12847
4.33775e-012
1.01723
4.93694e-012
0.965248
4.54803e-012
0.952901
3.11273e-012
0.949004
1.25533e-012
0.920356
1.8574e-013
0.783445
2.04614e-013
0.20482
7.59393e-013
0.0440065
-1.04416e-013
0.00650858
-6.24778e-014
0.000984877
-3.95795e-014
0.000152886
-3.31957e-014
2.45681e-005
-2.97817e-014
4.12999e-006
6.57807e-015
7.24429e-007
1.69864e-014
1.32182e-007
2.75058e-014
2.48709e-008
1.80966e-014
4.78394e-009
-7.88536e-014
9.32549e-010
-3.98293e-014
1.82744e-010
-2.7256e-014
3.59159e-011
3.23075e-014
7.03012e-012
2.14551e-014
1.37918e-012
3.64708e-014
2.69372e-013
-2.68952e-014
4.86603e-014
-3.47639e-014
3.68282e-015
7.31221e-014
-1.13345e-014
-5.4956e-015
-1.44884e-014
3.01799e-014
-3.59357e-012
4.46305e-014
-6.35048e-013
6.78277e-016
-7.71827e-013
1.67011e-014
1.41842e-012
1.36419e-014
2.66454e-015
-1.6502e-014
-3.07399e-012
1.37267e-012
1.93356e-012
1.61152e-011
-1.28786e-013
2.01191e-010
-1.79234e-012
1.87296e-009
-1.76037e-012
1.92955e-008
-7.4607e-014
1.54282e-007
-1.89981e-012
1.29555e-006
-1.47704e-012
8.74906e-006
-1.59339e-012
5.87473e-005
5.58664e-013
0.000327028
-6.55476e-013
0.00171116
8.28226e-013
0.00763429
2.91767e-013
0.0285769
1.97176e-013
0.0866716
1.25766e-012
0.212864
-6.42153e-013
0.433919
9.69447e-013
0.723941
9.49907e-013
1.01101
1.28786e-012
1.24436
9.67004e-013
1.38278
-1.11022e-013
1.44813
-3.55271e-013
1.53431
-6.75682e-013
1.57625
-8.87068e-014
1.5682
5.57998e-013
1.40733
5.53557e-013
1.27689
2.89646e-012
1.09201
4.43423e-012
0.984362
5.11235e-012
0.934059
4.66949e-012
0.92211
2.91456e-012
0.91834
9.86877e-013
0.890617
-5.88529e-013
0.758131
-1.38567e-012
0.198202
-6.32328e-013
0.0425845
-8.32667e-014
0.00629827
-7.58282e-014
0.000953054
-5.89251e-014
0.000147946
-6.82787e-015
2.37742e-005
-5.07927e-014
3.99654e-006
-2.86438e-014
7.01022e-007
2.07889e-014
1.27911e-007
2.57017e-014
2.40673e-008
1.39333e-014
4.62936e-009
-7.26363e-014
9.02416e-010
-2.28428e-014
1.76839e-010
-5.26523e-014
3.47524e-011
1.87073e-014
6.79869e-012
-5.88418e-015
1.33312e-012
2.91156e-014
2.63017e-013
-1.93734e-014
4.94372e-014
-1.40582e-014
2.68102e-015
5.22221e-014
-1.23168e-014
-9.21485e-015
-3.41394e-015
3.29224e-014
-2.89724e-012
5.0281e-014
-2.79776e-013
4.38668e-015
-1.15463e-012
1.50366e-014
5.40012e-013
1.22909e-014
-4.70735e-014
-1.41488e-014
-3.95772e-012
1.32513e-012
1.24434e-012
1.55908e-011
2.62901e-013
1.94691e-010
-1.811e-012
1.81244e-009
-1.33138e-012
1.8672e-008
-9.89431e-013
1.49296e-007
-1.46905e-012
1.25368e-006
-2.23999e-012
8.46636e-006
-1.99574e-012
5.68491e-005
2.25597e-013
0.000316461
-7.69607e-013
0.00165587
4.90274e-013
0.00738761
1.6076e-013
0.0276535
1.71863e-013
0.083871
1.5663e-012
0.205986
-3.93463e-013
0.419898
7.53175e-013
0.700549
8.45102e-013
0.978346
1.09202e-012
1.20415
1.1291e-012
1.3381
-4.75175e-014
1.40134
-5.3002e-013
1.48473
-8.52651e-013
1.52532
-8.21565e-014
1.51753
5.02265e-013
1.36186
5.57554e-013
1.23563
3.09142e-012
1.05672
4.48375e-012
0.952555
5.15388e-012
0.903878
4.84357e-012
0.892315
2.82896e-012
0.888667
6.75571e-013
0.861839
-1.40477e-012
0.733634
-2.99605e-012
0.191797
-2.28151e-012
0.0412085
-1.22125e-013
0.00609476
-1.11522e-013
0.000922259
-6.56419e-014
0.000143165
-5.52336e-015
2.30061e-005
-7.39131e-014
3.86741e-006
-1.06859e-014
6.7837e-007
2.70894e-014
1.23778e-007
3.43892e-014
2.32896e-008
1.63203e-014
4.47978e-009
-6.48925e-014
8.73257e-010
-2.63678e-014
1.71125e-010
-5.76206e-014
3.36325e-011
1.00198e-014
6.58303e-012
1.33227e-015
1.29095e-012
3.46667e-014
2.52492e-013
-1.02141e-014
4.63663e-014
-1.34615e-015
2.76081e-015
3.76366e-014
-1.13382e-014
-1.86517e-014
2.33424e-014
2.92947e-014
-2.77023e-012
4.38261e-014
-3.96128e-013
1.90299e-015
-7.78932e-013
1.41523e-014
5.12479e-013
1.16877e-014
-4.79616e-013
-1.34684e-014
-3.87601e-012
1.28525e-012
1.65645e-012
1.50886e-011
-1.5099e-013
1.88399e-010
-2.28617e-012
1.75387e-009
-1.24878e-012
1.80687e-008
-1.9309e-012
1.44472e-007
-1.0445e-012
1.21318e-006
-2.49045e-012
8.19279e-006
-2.15206e-012
5.50122e-005
2.81553e-013
0.000306235
-7.13651e-013
0.00160237
6.15064e-013
0.0071489
2.82441e-013
0.02676
1.58096e-013
0.081161
1.21236e-012
0.199331
-3.57048e-013
0.40633
1.66533e-013
0.677913
1.14442e-012
0.946734
1.16662e-012
1.16525
1.17706e-012
1.29487
-9.99201e-014
1.35606
-5.54889e-013
1.43676
-7.02993e-013
1.47603
-2.11164e-013
1.4685
6.24722e-013
1.31786
6.62137e-013
1.19571
3.17324e-012
1.02258
4.47742e-012
0.921776
5.13345e-012
0.874671
4.8006e-012
0.863482
2.70073e-012
0.859952
2.98428e-013
0.833992
-2.28306e-012
0.709929
-4.62241e-012
0.1856
-3.45746e-012
0.039877
-1.54154e-013
0.00589783
-1.05971e-013
0.000892459
-6.15896e-014
0.000138539
-1.21014e-014
2.22627e-005
-7.62723e-014
3.74244e-006
8.79852e-015
6.56451e-007
5.23748e-014
1.19778e-007
1.34892e-014
2.25371e-008
9.9365e-015
4.33503e-009
-3.81362e-014
8.45041e-010
-1.38778e-015
1.65596e-010
-5.07927e-014
3.25432e-011
-4.09395e-014
6.36643e-012
1.01585e-014
1.2483e-012
4.14668e-014
2.46346e-013
-2.32869e-014
4.63596e-014
1.44329e-015
2.51969e-015
5.75373e-014
-1.10736e-014
-8.21565e-015
6.81399e-015
3.24818e-014
-2.32525e-012
4.64585e-014
-3.12639e-013
4.00678e-015
-7.42517e-013
1.28352e-014
8.2867e-013
1.10103e-014
-4.96492e-013
-1.09743e-014
-3.67528e-012
1.24102e-012
1.2701e-012
1.45983e-011
-6.1906e-013
1.82312e-010
-2.31459e-012
1.6972e-009
-1.30651e-012
1.74848e-008
-2.09077e-012
1.39804e-007
-5.39124e-013
1.17398e-006
-2.33769e-012
7.92807e-006
-2.47891e-012
5.32346e-005
3.7037e-013
0.00029634
-8.98837e-013
0.00155059
5.8975e-013
0.00691791
3.92131e-013
0.0258953
7.19425e-014
0.0785385
7.9492e-013
0.19289
-5.80425e-013
0.393201
8.83738e-014
0.656008
1.08624e-012
0.916143
1.54143e-012
1.12759
1.2601e-012
1.25303
-4.30767e-014
1.31224
-4.87388e-013
1.39033
-8.34888e-013
1.42834
-2.66676e-013
1.42105
6.87783e-013
1.27527
6.89004e-013
1.15707
3.12761e-012
0.989535
4.35474e-012
0.891991
4.99323e-012
0.846409
4.57401e-012
0.835581
2.40619e-012
0.832165
-8.51541e-014
0.807044
-3.17257e-012
0.686989
-6.07048e-012
0.179603
-4.29773e-012
0.0385885
-1.82021e-013
0.00570726
-1.13326e-013
0.000863621
-6.79179e-014
0.000134063
-3.42504e-014
2.15433e-005
-6.86118e-014
3.62152e-006
9.27036e-015
6.35239e-007
4.76841e-014
1.15908e-007
-2.18714e-014
2.18089e-008
-3.33067e-015
4.19495e-009
-3.62488e-014
8.17735e-010
1.78468e-014
1.60245e-010
-4.73788e-014
3.14944e-011
-6.51701e-014
6.16444e-012
1.83464e-014
1.20863e-012
3.73868e-014
2.36597e-013
-2.74225e-014
4.36561e-014
9.76996e-015
2.20765e-015
5.76483e-014
-1.04652e-014
-1.20737e-014
1.47105e-015
2.86312e-014
-2.5544e-012
4.20376e-014
-6.30607e-014
2.64155e-015
-8.39329e-013
1.12432e-014
5.67546e-013
1.03212e-014
-1.19993e-012
-1.04981e-014
-3.49054e-012
1.20279e-012
6.82121e-013
1.41275e-011
-1.76925e-012
1.7642e-010
-2.44871e-012
1.64236e-009
-9.90319e-013
1.69199e-008
-2.04903e-012
1.35287e-007
-4.91163e-013
1.13604e-006
-2.41407e-012
7.67189e-006
-2.58193e-012
5.15145e-005
-1.05693e-013
0.000286765
-4.91163e-013
0.00150049
6.24389e-013
0.00669438
3.85469e-013
0.0250586
2.37588e-013
0.0760007
3.70814e-013
0.186657
-5.93303e-013
0.380496
1.36335e-013
0.634811
7.35856e-013
0.88654
1.66622e-012
1.09116
1.36335e-012
1.21254
1.09468e-013
1.26984
-5.07594e-013
1.34541
-8.82849e-013
1.38218
-2.75113e-013
1.37513
7.71383e-013
1.23407
6.36047e-013
1.11968
3.06066e-012
0.957561
4.2758e-012
0.863169
4.91562e-012
0.81906
4.44222e-012
0.808582
2.29106e-012
0.805276
-2.90656e-013
0.780966
-3.42926e-012
0.664791
-6.22569e-012
0.1738
-4.19348e-012
0.0373416
-2.17215e-013
0.00552284
-9.9809e-014
0.000835716
-4.27436e-014
0.000129731
-1.70697e-014
2.08472e-005
-4.70735e-014
3.5045e-006
1.34615e-014
6.14713e-007
5.84255e-014
1.12163e-007
-6.26721e-014
2.11042e-008
-1.45439e-014
4.05941e-009
-1.64868e-014
7.91312e-010
1.49325e-014
1.55067e-010
-6.45317e-014
3.04751e-011