/*--------------------------------*- C++ -*----------------------------------*\
| =========                 |                                                 |
| \\      /  F ield         | OpenFOAM: The Open Source CFD Toolbox           |
|  \\    /   O peration     | Version:  5.x                                   |
|   \\  /    A nd           | Web:      www.OpenFOAM.org                      |
|    \\/     M anipulation  |                                                 |
\*---------------------------------------------------------------------------*/
/*   Windows 32 and 64 bit porting by blueCAPE: http://www.bluecape.com.pt   *\
|  Based on Windows porting (2.0.x v4) by Symscape: http://www.symscape.com   |
\*---------------------------------------------------------------------------*/
FoamFile
{
    version     2.0;
    format      ascii;
    class       volVectorField;
    location    "0.002";
    object      U;
}
// * * * * * * * * * * * * * * * * * * * * * * * * * * * * * * * * * * * * * //

dimensions      [0 1 -1 0 0 0 0];

internalField   nonuniform List<vector> 
10000
(
(7.46518e-013 -2.53523e-013 0)
(3.26092e-012 2.46798e-012 0)
(2.30208e-012 2.45491e-014 0)
(-3.074e-012 -3.12433e-012 0)
(7.08897e-012 5.35527e-013 0)
(-2.87494e-012 -1.01825e-012 0)
(-8.42247e-014 -2.27341e-012 0)
(2.40941e-010 -2.58598e-013 0)
(2.57094e-009 3.26585e-013 0)
(3.25092e-008 2.18212e-013 0)
(2.92127e-007 -4.39754e-013 0)
(3.05004e-006 4.07437e-013 0)
(2.35138e-005 -8.80333e-013 0)
(0.000199265 -1.07025e-012 0)
(0.00129626 5.76538e-013 0)
(0.00872402 1.80736e-012 0)
(0.0466838 4.62302e-012 0)
(0.241142 2.40135e-012 0)
(0.979451 8.58742e-013 0)
(3.46482 2.27212e-012 0)
(9.79078 3.18023e-012 0)
(23.5722 -1.5448e-012 0)
(47.3964 -7.9192e-013 0)
(80.1957 -2.1122e-012 0)
(118.372 -8.83875e-013 0)
(156.082 -1.28272e-013 0)
(189.776 2.13195e-012 0)
(219.264 1.43118e-012 0)
(245.971 1.65678e-012 0)
(269.554 -1.60528e-013 0)
(286.191 2.45122e-012 0)
(291.142 -2.5867e-012 0)
(291.971 2.63753e-012 0)
(294.325 4.46159e-012 0)
(293.039 7.08334e-012 0)
(287.394 9.31499e-012 0)
(279.655 1.0728e-011 0)
(269.584 1.57478e-011 0)
(246.375 2.19478e-011 0)
(173.042 2.03335e-011 0)
(53.8491 -1.1756e-012 0)
(7.94381 2.57409e-012 0)
(1.18648 -4.36861e-012 0)
(0.182535 -6.70851e-012 0)
(0.0290814 -8.9041e-013 0)
(0.0048502 1.78873e-012 0)
(0.00084388 1.1309e-012 0)
(0.000152954 3.23257e-013 0)
(2.86367e-005 -4.12129e-013 0)
(5.49169e-006 2.83929e-012 0)
(1.06965e-006 4.11965e-012 0)
(2.09535e-007 2.2901e-012 0)
(4.12644e-008 1.43798e-012 0)
(8.07902e-009 -2.78172e-012 0)
(1.58639e-009 -5.41367e-013 0)
(3.12903e-010 -6.47596e-012 0)
(6.12241e-011 -1.37819e-012 0)
(1.10333e-011 -1.74354e-012 0)
(4.16676e-012 1.80953e-012 0)
(-8.89498e-012 -8.86894e-012 0)
(9.95054e-013 1.39702e-012 0)
(3.27796e-012 -9.2766e-012 0)
(2.06622e-012 5.597e-013 0)
(-3.07648e-012 -1.00578e-012 0)
(7.18727e-012 2.25717e-012 0)
(-3.00526e-012 -2.42198e-012 0)
(-5.78771e-014 -6.51839e-013 0)
(2.41064e-010 5.08285e-012 0)
(2.571e-009 -4.2102e-012 0)
(3.25092e-008 6.61815e-013 0)
(2.92127e-007 -1.1125e-012 0)
(3.05004e-006 1.76551e-012 0)
(2.35138e-005 6.803e-013 0)
(0.000199265 -2.05344e-012 0)
(0.00129626 4.18117e-012 0)
(0.00872402 1.20022e-012 0)
(0.0466838 3.56771e-012 0)
(0.241142 7.51194e-013 0)
(0.979451 1.84736e-012 0)
(3.46482 -3.47234e-013 0)
(9.79078 -1.56998e-012 0)
(23.5722 -1.50282e-012 0)
(47.3964 -6.11798e-013 0)
(80.1957 3.8803e-013 0)
(118.372 -7.05916e-012 0)
(156.082 -2.35888e-012 0)
(189.776 -1.31448e-012 0)
(219.264 -1.08579e-012 0)
(245.971 3.48932e-013 0)
(269.554 1.70806e-012 0)
(286.191 4.90559e-012 0)
(291.142 3.45836e-012 0)
(291.971 1.3616e-011 0)
(294.325 1.58322e-011 0)
(293.039 1.75636e-011 0)
(287.394 1.60879e-011 0)
(279.655 1.37683e-011 0)
(269.584 1.7571e-011 0)
(246.375 2.6148e-011 0)
(173.042 3.484e-011 0)
(53.8491 -1.12562e-012 0)
(7.94381 -2.7145e-012 0)
(1.18648 -1.23869e-012 0)
(0.182535 2.92927e-012 0)
(0.0290814 2.45672e-012 0)
(0.0048502 -6.68244e-012 0)
(0.00084388 4.88388e-012 0)
(0.000152954 -8.62738e-012 0)
(2.86367e-005 2.12835e-013 0)
(5.49169e-006 -7.95922e-012 0)
(1.06965e-006 -3.35772e-012 0)
(2.09534e-007 2.32459e-012 0)
(4.12636e-008 1.71737e-013 0)
(8.07867e-009 3.02034e-012 0)
(1.58562e-009 -2.65402e-012 0)
(3.12807e-010 8.71103e-012 0)
(6.20279e-011 7.80815e-013 0)
(1.16299e-011 -6.62138e-013 0)
(2.82185e-012 -1.02562e-012 0)
(-1.09478e-011 -4.96348e-012 0)
(3.40675e-013 -2.87027e-014 0)
(3.25754e-012 1.46924e-012 0)
(2.59802e-012 4.28877e-012 0)
(-2.99854e-012 2.66097e-012 0)
(7.0493e-012 5.85082e-012 0)
(-3.00896e-012 -3.11187e-013 0)
(2.68386e-013 4.7124e-012 0)
(2.40762e-010 9.75111e-013 0)
(2.57071e-009 -1.48518e-012 0)
(3.25093e-008 -1.51571e-012 0)
(2.92127e-007 1.78936e-013 0)
(3.05004e-006 1.9748e-012 0)
(2.35138e-005 -3.09392e-013 0)
(0.000199265 -2.58738e-012 0)
(0.00129626 4.1334e-012 0)
(0.00872402 2.2697e-013 0)
(0.0466838 4.22071e-012 0)
(0.241142 6.11615e-012 0)
(0.979451 -1.62277e-012 0)
(3.46482 -8.29932e-013 0)
(9.79078 4.16084e-013 0)
(23.5722 -9.01346e-013 0)
(47.3964 1.92223e-012 0)
(80.1957 1.24463e-012 0)
(118.372 -2.57737e-012 0)
(156.082 -2.86609e-012 0)
(189.776 3.86849e-013 0)
(219.264 4.44734e-013 0)
(245.971 2.39561e-012 0)
(269.554 7.7622e-013 0)
(286.191 6.01987e-012 0)
(291.142 1.26024e-011 0)
(291.971 1.48199e-011 0)
(294.325 1.65065e-011 0)
(293.039 1.20782e-011 0)
(287.394 -1.01665e-012 0)
(279.655 -8.20768e-012 0)
(269.584 -8.5038e-012 0)
(246.375 -1.32163e-011 0)
(173.042 4.49549e-012 0)
(53.8491 -4.44081e-013 0)
(7.94381 1.94706e-012 0)
(1.18648 -2.78074e-012 0)
(0.182535 -5.54439e-012 0)
(0.0290814 -1.92076e-013 0)
(0.0048502 -3.85856e-012 0)
(0.00084388 6.95996e-012 0)
(0.000152954 -4.63219e-012 0)
(2.86367e-005 -9.62132e-013 0)
(5.49169e-006 5.07515e-013 0)
(1.06965e-006 4.04296e-012 0)
(2.09535e-007 5.17536e-012 0)
(4.12645e-008 2.48339e-012 0)
(8.07848e-009 -9.50304e-013 0)
(1.58739e-009 1.03894e-013 0)
(3.13361e-010 2.77527e-013 0)
(5.95875e-011 1.92358e-013 0)
(1.0801e-011 -6.25165e-012 0)
(3.32031e-012 -4.35072e-012 0)
(-9.64434e-012 -1.25259e-011 0)
(8.75305e-013 -2.36888e-012 0)
(3.44092e-012 -4.44946e-012 0)
(2.13662e-012 1.35687e-012 0)
(-3.00638e-012 2.18541e-012 0)
(7.05257e-012 6.08776e-012 0)
(-3.05308e-012 -1.6309e-012 0)
(2.01281e-015 2.63433e-012 0)
(2.40774e-010 5.74329e-012 0)
(2.57087e-009 -1.19929e-012 0)
(3.25093e-008 3.65125e-012 0)
(2.92127e-007 -1.95259e-012 0)
(3.05004e-006 1.36846e-013 0)
(2.35138e-005 -4.05028e-013 0)
(0.000199265 -5.61047e-012 0)
(0.00129626 4.43661e-012 0)
(0.00872402 2.52167e-012 0)
(0.0466838 3.5851e-012 0)
(0.241142 5.22715e-012 0)
(0.979451 5.86345e-013 0)
(3.46482 -4.3315e-013 0)
(9.79078 2.54879e-013 0)
(23.5722 -1.65095e-012 0)
(47.3964 5.71614e-013 0)
(80.1957 2.3827e-013 0)
(118.372 -3.8904e-012 0)
(156.082 -2.29792e-012 0)
(189.776 -2.12451e-012 0)
(219.264 -1.07243e-012 0)
(245.971 1.9974e-012 0)
(269.554 2.2639e-012 0)
(286.191 5.8043e-012 0)
(291.142 1.37777e-011 0)
(291.971 1.51901e-011 0)
(294.325 1.52342e-011 0)
(293.039 5.66857e-012 0)
(287.394 -1.62832e-011 0)
(279.655 -3.11119e-011 0)
(269.584 -4.36104e-011 0)
(246.375 -5.46756e-011 0)
(173.042 -3.82143e-011 0)
(53.8491 -3.86716e-012 0)
(7.94381 -1.67202e-012 0)
(1.18648 2.05991e-012 0)
(0.182535 7.32201e-013 0)
(0.0290814 1.73345e-012 0)
(0.0048502 -5.01952e-012 0)
(0.00084388 5.87771e-012 0)
(0.000152954 -6.14894e-012 0)
(2.86367e-005 4.8436e-013 0)
(5.49169e-006 -7.20339e-012 0)
(1.06965e-006 -3.2146e-012 0)
(2.09534e-007 -9.40515e-013 0)
(4.12627e-008 6.78435e-013 0)
(8.07837e-009 3.9646e-013 0)
(1.58594e-009 2.51145e-012 0)
(3.12835e-010 5.98225e-012 0)
(6.08542e-011 4.48866e-012 0)
(1.0909e-011 -7.98324e-013 0)
(1.5174e-012 -8.13812e-013 0)
(-1.24124e-011 -6.61806e-012 0)
(2.89663e-013 -1.14405e-012 0)
(3.40757e-012 4.99761e-013 0)
(2.83876e-012 2.92533e-012 0)
(-2.83664e-012 2.20629e-012 0)
(6.88241e-012 1.597e-012 0)
(-3.11092e-012 -6.45506e-012 0)
(5.46275e-013 3.52394e-012 0)
(2.40603e-010 9.55611e-013 0)
(2.57064e-009 1.66416e-012 0)
(3.25093e-008 2.97048e-012 0)
(2.92127e-007 -2.33486e-012 0)
(3.05004e-006 1.21683e-012 0)
(2.35138e-005 -7.19358e-013 0)
(0.000199265 -1.04522e-012 0)
(0.00129626 7.00769e-012 0)
(0.00872402 -3.93363e-012 0)
(0.0466838 2.56572e-012 0)
(0.241142 9.44472e-012 0)
(0.979451 2.60236e-013 0)
(3.46482 2.93784e-013 0)
(9.79078 -5.05436e-013 0)
(23.5722 -1.37337e-012 0)
(47.3964 6.61525e-013 0)
(80.1957 2.9672e-012 0)
(118.372 -4.88915e-013 0)
(156.082 -5.7021e-014 0)
(189.776 -9.97662e-013 0)
(219.264 -3.30494e-012 0)
(245.971 5.65833e-013 0)
(269.554 1.99138e-012 0)
(286.191 3.32432e-012 0)
(291.142 8.62178e-012 0)
(291.971 1.87126e-011 0)
(294.325 1.57799e-011 0)
(293.039 6.30785e-012 0)
(287.394 -8.29585e-012 0)
(279.655 -2.52218e-011 0)
(269.584 -3.49989e-011 0)
(246.375 -4.70625e-011 0)
(173.042 -3.80759e-011 0)
(53.8491 -5.64141e-012 0)
(7.94381 -8.61473e-013 0)
(1.18648 -3.48617e-012 0)
(0.182535 -4.0146e-012 0)
(0.0290814 7.11864e-013 0)
(0.0048502 -3.42351e-012 0)
(0.00084388 7.07619e-012 0)
(0.000152954 -2.11364e-012 0)
(2.86367e-005 -1.94015e-012 0)
(5.49169e-006 -6.57706e-012 0)
(1.06965e-006 3.24074e-012 0)
(2.09536e-007 4.398e-013 0)
(4.12646e-008 2.56416e-012 0)
(8.0787e-009 -4.07498e-013 0)
(1.58827e-009 1.19516e-012 0)
(3.13659e-010 8.13859e-013 0)
(5.85132e-011 2.67234e-012 0)
(9.86408e-012 2.56775e-012 0)
(2.27094e-012 -8.44367e-012 0)
(-1.07443e-011 -2.89239e-012 0)
(9.09802e-013 -3.85836e-012 0)
(3.56843e-012 -4.77856e-012 0)
(2.20911e-012 2.1323e-012 0)
(-3.0162e-012 1.87177e-012 0)
(6.70862e-012 2.38145e-012 0)
(-3.00277e-012 -2.73397e-012 0)
(3.16354e-013 3.61305e-012 0)
(2.40714e-010 -2.54975e-012 0)
(2.57094e-009 -8.29083e-013 0)
(3.25091e-008 1.73782e-012 0)
(2.92127e-007 -9.02906e-013 0)
(3.05004e-006 1.17225e-012 0)
(2.35138e-005 -3.79783e-013 0)
(0.000199265 -2.96838e-012 0)
(0.00129626 6.74003e-012 0)
(0.00872402 1.38072e-013 0)
(0.0466838 6.02841e-012 0)
(0.241142 7.81413e-012 0)
(0.979451 -5.78448e-013 0)
(3.46482 -4.63911e-013 0)
(9.79078 -3.44805e-013 0)
(23.5722 -2.93647e-012 0)
(47.3964 1.43044e-012 0)
(80.1957 1.444e-012 0)
(118.372 -1.9981e-012 0)
(156.082 -1.71889e-012 0)
(189.776 -2.33318e-013 0)
(219.264 -1.97922e-012 0)
(245.971 4.67937e-013 0)
(269.554 5.672e-013 0)
(286.191 5.548e-012 0)
(291.142 7.19113e-012 0)
(291.971 2.19937e-011 0)
(294.325 2.58722e-011 0)
(293.039 2.44365e-011 0)
(287.394 1.59173e-011 0)
(279.655 -2.51512e-012 0)
(269.584 -8.18315e-012 0)
(246.375 -4.68159e-012 0)
(173.042 -1.38426e-011 0)
(53.8491 -6.98882e-012 0)
(7.94381 -3.51192e-012 0)
(1.18648 -1.16117e-012 0)
(0.182535 -2.13337e-012 0)
(0.0290814 2.43181e-012 0)
(0.0048502 -3.08512e-012 0)
(0.00084388 4.51004e-012 0)
(0.000152954 -4.67847e-013 0)
(2.86367e-005 -2.5155e-012 0)
(5.49169e-006 -7.11737e-012 0)
(1.06965e-006 -2.91798e-012 0)
(2.09534e-007 -4.64956e-012 0)
(4.12626e-008 -1.86771e-012 0)
(8.07826e-009 3.70734e-012 0)
(1.5861e-009 1.86331e-012 0)
(3.13106e-010 5.37946e-012 0)
(6.10442e-011 2.97545e-012 0)
(8.99019e-012 -3.31618e-013 0)
(6.74154e-013 -3.20225e-012 0)
(-1.13446e-011 -6.83113e-013 0)
(2.83345e-013 -2.01431e-012 0)
(3.63417e-012 -2.05191e-012 0)
(3.0311e-012 4.25054e-013 0)
(-2.84282e-012 4.61155e-012 0)
(6.72295e-012 3.34015e-012 0)
(-3.04074e-012 -2.98022e-012 0)
(5.5128e-013 1.42499e-012 0)
(2.40412e-010 -3.29483e-012 0)
(2.57083e-009 -2.10111e-012 0)
(3.25093e-008 2.23428e-012 0)
(2.92127e-007 1.79922e-012 0)
(3.05004e-006 -1.01441e-012 0)
(2.35138e-005 1.28717e-012 0)
(0.000199265 4.39926e-013 0)
(0.00129626 6.52071e-012 0)
(0.00872402 4.29928e-013 0)
(0.0466838 4.28658e-012 0)
(0.241142 1.00426e-011 0)
(0.979451 1.69342e-012 0)
(3.46482 -7.94364e-013 0)
(9.79078 -4.45424e-013 0)
(23.5722 -6.9107e-013 0)
(47.3964 -1.29124e-012 0)
(80.1957 4.43015e-012 0)
(118.372 1.51782e-012 0)
(156.082 7.32436e-013 0)
(189.776 -2.58432e-012 0)
(219.264 -3.97305e-012 0)
(245.971 -1.1088e-012 0)
(269.554 7.93902e-013 0)
(286.191 4.29791e-012 0)
(291.142 1.00901e-011 0)
(291.971 3.0887e-011 0)
(294.325 3.69638e-011 0)
(293.039 4.01943e-011 0)
(287.394 3.00985e-011 0)
(279.655 1.28273e-011 0)
(269.584 1.23385e-011 0)
(246.375 2.53233e-011 0)
(173.042 1.47772e-011 0)
(53.8491 -1.96728e-012 0)
(7.94381 -1.51426e-012 0)
(1.18648 -5.81141e-013 0)
(0.182535 -5.37055e-012 0)
(0.0290814 3.29897e-013 0)
(0.0048502 1.47834e-013 0)
(0.00084388 5.27043e-012 0)
(0.000152954 3.79708e-012 0)
(2.86367e-005 -7.94437e-013 0)
(5.49169e-006 -6.53811e-012 0)
(1.06965e-006 7.89143e-013 0)
(2.09536e-007 1.85834e-012 0)
(4.12657e-008 -2.60274e-013 0)
(8.07912e-009 2.10014e-012 0)
(1.58843e-009 -3.37485e-012 0)
(3.13817e-010 1.98058e-012 0)
(5.7688e-011 1.07876e-012 0)
(8.94188e-012 -3.36607e-013 0)
(2.209e-012 -6.20616e-012 0)
(-1.04131e-011 -2.74998e-012 0)
(8.86411e-013 -4.08011e-012 0)
(3.63401e-012 -3.25577e-012 0)
(2.47516e-012 3.64776e-012 0)
(-2.91065e-012 3.4534e-012 0)
(6.42673e-012 2.61201e-012 0)
(-3.07463e-012 -5.28201e-012 0)
(2.92958e-013 3.15197e-012 0)
(2.40575e-010 -3.76935e-012 0)
(2.57117e-009 -3.6097e-012 0)
(3.25093e-008 -8.59726e-013 0)
(2.92127e-007 9.15541e-013 0)
(3.05004e-006 -5.39467e-012 0)
(2.35138e-005 4.77857e-013 0)
(0.000199265 1.06033e-012 0)
(0.00129626 5.38012e-012 0)
(0.00872402 4.295e-012 0)
(0.0466838 4.91038e-012 0)
(0.241142 9.49935e-012 0)
(0.979451 -7.38466e-013 0)
(3.46482 3.69602e-013 0)
(9.79078 -4.27809e-013 0)
(23.5722 -4.48692e-012 0)
(47.3964 1.23193e-013 0)
(80.1957 2.27594e-012 0)
(118.372 -9.32219e-013 0)
(156.082 -1.06179e-014 0)
(189.776 -2.75777e-012 0)
(219.264 -4.40359e-012 0)
(245.971 7.33445e-013 0)
(269.554 1.51485e-012 0)
(286.191 6.59091e-012 0)
(291.142 1.69939e-011 0)
(291.971 3.58322e-011 0)
(294.325 4.31788e-011 0)
(293.039 4.78603e-011 0)
(287.394 3.21731e-011 0)
(279.655 1.37175e-011 0)
(269.584 9.18733e-012 0)
(246.375 1.33565e-011 0)
(173.042 1.05777e-011 0)
(53.8491 1.79618e-013 0)
(7.94381 -3.98788e-012 0)
(1.18648 -8.26446e-014 0)
(0.182535 -5.16164e-014 0)
(0.0290814 2.51281e-013 0)
(0.0048502 -9.56365e-013 0)
(0.00084388 6.26495e-012 0)
(0.000152954 3.18511e-012 0)
(2.86367e-005 -1.6937e-012 0)
(5.49169e-006 -4.23486e-012 0)
(1.06965e-006 -1.90956e-012 0)
(2.09534e-007 1.52572e-012 0)
(4.12628e-008 -7.13337e-013 0)
(8.07786e-009 2.36229e-012 0)
(1.58623e-009 1.40156e-012 0)
(3.13749e-010 1.64376e-012 0)
(6.06024e-011 4.67017e-012 0)
(7.70705e-012 8.69194e-013 0)
(3.93988e-013 -4.47585e-012 0)
(-1.07002e-011 -3.17041e-012 0)
(3.42433e-013 -3.42191e-012 0)
(3.88453e-012 -5.96108e-013 0)
(3.22251e-012 -3.11618e-012 0)
(-2.87341e-012 3.08006e-012 0)
(6.41069e-012 6.37967e-013 0)
(-2.99803e-012 -5.30348e-012 0)
(5.72414e-013 1.59025e-013 0)
(2.40163e-010 1.29439e-012 0)
(2.57096e-009 -8.23892e-013 0)
(3.25094e-008 -5.25152e-013 0)
(2.92127e-007 3.96446e-012 0)
(3.05004e-006 -3.57644e-012 0)
(2.35138e-005 2.10865e-012 0)
(0.000199265 2.84838e-012 0)
(0.00129626 4.20656e-012 0)
(0.00872402 5.81563e-012 0)
(0.0466838 5.20564e-012 0)
(0.241142 1.05211e-011 0)
(0.979451 -1.51778e-012 0)
(3.46482 -1.00892e-012 0)
(9.79078 -2.72941e-012 0)
(23.5722 1.67339e-012 0)
(47.3964 -4.52753e-013 0)
(80.1957 2.73629e-012 0)
(118.372 1.40386e-012 0)
(156.082 5.98571e-013 0)
(189.776 -7.81217e-013 0)
(219.264 -4.66154e-012 0)
(245.971 -6.95967e-013 0)
(269.554 1.14723e-012 0)
(286.191 8.72739e-012 0)
(291.142 2.4544e-011 0)
(291.971 3.88205e-011 0)
(294.325 4.79438e-011 0)
(293.039 5.09931e-011 0)
(287.394 2.50852e-011 0)
(279.655 1.88972e-013 0)
(269.584 -2.01137e-011 0)
(246.375 -3.56203e-011 0)
(173.042 -2.46631e-011 0)
(53.8491 1.17496e-012 0)
(7.94381 -4.50255e-012 0)
(1.18648 1.82524e-012 0)
(0.182535 -1.63618e-012 0)
(0.0290814 -1.33234e-012 0)
(0.0048502 1.2215e-012 0)
(0.00084388 5.06665e-012 0)
(0.000152954 3.56967e-012 0)
(2.86367e-005 3.60647e-012 0)
(5.49169e-006 -3.46095e-012 0)
(1.06965e-006 1.62079e-012 0)
(2.09536e-007 2.7867e-012 0)
(4.12657e-008 -1.76903e-012 0)
(8.0794e-009 5.56924e-012 0)
(1.58819e-009 -2.013e-012 0)
(3.1418e-010 3.19299e-012 0)
(5.77102e-011 -9.43252e-013 0)
(7.64752e-012 3.71217e-012 0)
(1.43902e-012 -3.46314e-012 0)
(-1.01321e-011 -6.93999e-012 0)
(9.30792e-013 -4.15743e-012 0)
(3.67209e-012 -2.66661e-012 0)
(2.62324e-012 6.77985e-013 0)
(-2.79896e-012 4.41324e-012 0)
(6.15566e-012 5.53767e-012 0)
(-3.09172e-012 -5.28607e-012 0)
(5.4305e-013 1.62036e-012 0)
(2.4053e-010 6.06721e-013 0)
(2.57109e-009 -2.22596e-012 0)
(3.25095e-008 -9.18922e-013 0)
(2.92127e-007 2.45877e-012 0)
(3.05004e-006 -6.08786e-012 0)
(2.35138e-005 8.65474e-013 0)
(0.000199265 1.90596e-012 0)
(0.00129626 3.1411e-012 0)
(0.00872402 7.99301e-012 0)
(0.0466838 5.47761e-012 0)
(0.241142 1.04127e-011 0)
(0.979451 5.03803e-013 0)
(3.46482 -1.69653e-013 0)
(9.79078 1.28759e-012 0)
(23.5722 -2.88362e-013 0)
(47.3964 3.81889e-014 0)
(80.1957 1.75113e-012 0)
(118.372 1.1111e-012 0)
(156.082 3.00756e-012 0)
(189.776 -1.22415e-013 0)
(219.264 -2.5392e-012 0)
(245.971 2.00062e-012 0)
(269.554 1.22288e-012 0)
(286.191 8.25194e-012 0)
(291.142 2.92232e-011 0)
(291.971 4.32605e-011 0)
(294.325 4.94113e-011 0)
(293.039 5.12823e-011 0)
(287.394 2.14006e-011 0)
(279.655 -1.13611e-011 0)
(269.584 -4.06676e-011 0)
(246.375 -7.37492e-011 0)
(173.042 -6.61938e-011 0)
(53.8491 -2.12797e-012 0)
(7.94381 -1.78965e-012 0)
(1.18648 1.93796e-012 0)
(0.182535 -3.70872e-013 0)
(0.0290814 2.70947e-013 0)
(0.0048502 2.09501e-012 0)
(0.00084388 5.79019e-012 0)
(0.000152954 2.3251e-012 0)
(2.86367e-005 -4.51425e-013 0)
(5.49169e-006 -3.99218e-012 0)
(1.06965e-006 -3.60154e-013 0)
(2.09534e-007 4.73802e-013 0)
(4.12633e-008 -3.05725e-012 0)
(8.07776e-009 1.63583e-012 0)
(1.58602e-009 2.75219e-012 0)
(3.13988e-010 2.62792e-012 0)
(6.05928e-011 -3.0563e-012 0)
(7.34225e-012 2.86945e-012 0)
(-1.14859e-012 -2.99568e-012 0)
(-1.12157e-011 -5.88357e-012 0)
(3.99056e-013 -2.68554e-012 0)
(4.03605e-012 -5.30822e-013 0)
(3.40944e-012 -2.39185e-012 0)
(-2.71915e-012 3.08401e-012 0)
(6.08629e-012 2.88304e-012 0)
(-3.15003e-012 -6.15025e-012 0)
(7.7931e-013 1.66392e-012 0)
(2.40043e-010 -4.55284e-013 0)
(2.57091e-009 -2.35925e-012 0)
(3.25096e-008 -9.51128e-013 0)
(2.92126e-007 5.56515e-012 0)
(3.05004e-006 -3.51894e-012 0)
(2.35138e-005 1.12091e-012 0)
(0.000199265 1.77869e-012 0)
(0.00129626 2.30254e-012 0)
(0.00872402 6.55203e-012 0)
(0.0466838 5.31516e-012 0)
(0.241142 9.69986e-012 0)
(0.979451 7.00729e-013 0)
(3.46482 -1.25996e-013 0)
(9.79078 -2.70436e-012 0)
(23.5722 1.71663e-012 0)
(47.3964 3.77773e-012 0)
(80.1957 5.95728e-013 0)
(118.372 3.21092e-012 0)
(156.082 2.26834e-012 0)
(189.776 -1.34035e-012 0)
(219.264 -4.03711e-012 0)
(245.971 1.74129e-012 0)
(269.554 2.71031e-012 0)
(286.191 7.82007e-012 0)
(291.142 3.07774e-011 0)
(291.971 4.46787e-011 0)
(294.325 5.40637e-011 0)
(293.039 5.31318e-011 0)
(287.394 2.31147e-011 0)
(279.655 -1.26052e-011 0)
(269.584 -4.74767e-011 0)
(246.375 -7.8451e-011 0)
(173.042 -8.23234e-011 0)
(53.8491 -8.33544e-012 0)
(7.94381 -3.36764e-012 0)
(1.18648 2.58847e-012 0)
(0.182535 -1.22438e-012 0)
(0.0290814 4.15689e-013 0)
(0.0048502 1.21097e-012 0)
(0.00084388 2.872e-012 0)
(0.000152954 1.5265e-012 0)
(2.86367e-005 4.61808e-012 0)
(5.49169e-006 -4.99089e-012 0)
(1.06965e-006 -1.6282e-012 0)
(2.09535e-007 1.15228e-012 0)
(4.12658e-008 1.96589e-013 0)
(8.08009e-009 6.09909e-012 0)
(1.58833e-009 1.22214e-012 0)
(3.13376e-010 2.56876e-012 0)
(5.78036e-011 -4.85835e-012 0)
(7.6544e-012 4.93969e-012 0)
(4.43466e-014 -1.45678e-012 0)
(-1.06033e-011 -2.80457e-012 0)
(9.88767e-013 -8.64261e-012 0)
(3.67875e-012 9.59087e-014 0)
(2.75929e-012 9.04925e-013 0)
(-2.63215e-012 4.19098e-012 0)
(5.84741e-012 2.2012e-012 0)
(-3.11206e-012 -9.86194e-012 0)
(7.28214e-013 3.13027e-012 0)
(2.40375e-010 -2.48788e-012 0)
(2.57107e-009 -2.88086e-012 0)
(3.25098e-008 -2.39434e-012 0)
(2.92127e-007 4.13467e-012 0)
(3.05004e-006 -7.47463e-012 0)
(2.35138e-005 1.34127e-012 0)
(0.000199265 1.37331e-012 0)
(0.00129626 -9.6916e-014 0)
(0.00872402 6.84672e-012 0)
(0.0466838 5.46834e-012 0)
(0.241142 8.50077e-012 0)
(0.979451 4.5222e-013 0)
(3.46482 1.31392e-013 0)
(9.79078 -2.29226e-012 0)
(23.5722 1.63003e-012 0)
(47.3964 2.63643e-012 0)
(80.1957 2.86072e-012 0)
(118.372 2.38252e-012 0)
(156.082 5.87582e-014 0)
(189.776 -1.11333e-012 0)
(219.264 -3.40645e-012 0)
(245.971 1.43741e-012 0)
(269.554 3.2103e-012 0)
(286.191 6.76874e-012 0)
(291.142 3.14122e-011 0)
(291.971 4.96456e-011 0)
(294.325 6.05175e-011 0)
(293.039 5.78887e-011 0)
(287.394 3.35001e-011 0)
(279.655 -2.1709e-012 0)
(269.584 -3.1016e-011 0)
(246.375 -5.44006e-011 0)
(173.042 -5.71037e-011 0)
(53.8491 -8.26378e-012 0)
(7.94381 -2.26388e-012 0)
(1.18648 8.57413e-013 0)
(0.182535 -5.88843e-013 0)
(0.0290814 7.33782e-013 0)
(0.0048502 1.44349e-012 0)
(0.00084388 3.29417e-012 0)
(0.000152954 2.65254e-012 0)
(2.86367e-005 4.33927e-013 0)
(5.49169e-006 -4.07842e-012 0)
(1.06965e-006 -2.41697e-012 0)
(2.09534e-007 2.18595e-012 0)
(4.12639e-008 -1.19507e-012 0)
(8.07804e-009 4.18422e-012 0)
(1.58563e-009 3.17336e-012 0)
(3.13154e-010 2.46123e-012 0)
(6.08522e-011 -1.93876e-012 0)
(7.73906e-012 4.50945e-012 0)
(-2.07247e-012 -1.95154e-012 0)
(-1.13625e-011 -1.41076e-012 0)
(6.75128e-013 -2.70541e-012 0)
(4.27902e-012 -9.34727e-013 0)
(3.53651e-012 3.09411e-012 0)
(-2.67669e-012 3.56415e-012 0)
(5.6285e-012 1.91595e-012 0)
(-3.11053e-012 -6.44821e-012 0)
(1.00754e-012 2.41434e-013 0)
(2.3986e-010 -1.23533e-012 0)
(2.5709e-009 -1.82348e-012 0)
(3.25099e-008 -4.58824e-012 0)
(2.92126e-007 7.13674e-012 0)
(3.05004e-006 -3.89125e-012 0)
(2.35138e-005 5.14423e-013 0)
(0.000199265 -9.09495e-013 0)
(0.00129626 -4.90893e-013 0)
(0.00872402 6.0287e-012 0)
(0.0466838 5.67644e-012 0)
(0.241142 6.43215e-012 0)
(0.979451 2.14874e-012 0)
(3.46482 1.78522e-012 0)
(9.79078 -2.45244e-012 0)
(23.5722 3.96049e-012 0)
(47.3964 2.33387e-012 0)
(80.1957 3.82699e-012 0)
(118.372 1.73305e-012 0)
(156.082 3.05025e-012 0)
(189.776 -2.07233e-012 0)
(219.264 -2.55574e-012 0)
(245.971 1.90014e-012 0)
(269.554 4.84523e-012 0)
(286.191 5.04548e-012 0)
(291.142 3.34636e-011 0)
(291.971 5.44154e-011 0)
(294.325 6.79339e-011 0)
(293.039 6.83429e-011 0)
(287.394 4.72354e-011 0)
(279.655 1.13581e-011 0)
(269.584 -1.21895e-011 0)
(246.375 -1.64098e-011 0)
(173.042 -1.54039e-011 0)
(53.8491 -1.07158e-011 0)
(7.94381 -5.06474e-012 0)
(1.18648 3.14291e-013 0)
(0.182535 -5.85281e-013 0)
(0.0290814 9.48297e-013 0)
(0.0048502 2.86153e-012 0)
(0.00084388 2.81218e-012 0)
(0.000152954 8.80117e-013 0)
(2.86367e-005 2.806e-012 0)
(5.49169e-006 -6.69537e-012 0)
(1.06965e-006 -3.34373e-012 0)
(2.09536e-007 -1.36201e-012 0)
(4.12659e-008 3.57348e-012 0)
(8.08047e-009 3.11441e-012 0)
(1.58802e-009 8.17854e-013 0)
(3.12784e-010 5.50337e-013 0)
(5.81972e-011 4.53632e-013 0)
(7.66104e-012 6.42521e-012 0)
(-7.20671e-013 1.97051e-012 0)
(-1.07028e-011 -2.2481e-012 0)
(1.03477e-012 -6.44292e-012 0)
(3.84769e-012 1.56848e-012 0)
(2.91073e-012 2.04395e-012 0)
(-2.67946e-012 4.20857e-012 0)
(5.52881e-012 1.16109e-012 0)
(-3.14144e-012 -6.18958e-012 0)
(9.23223e-013 5.84358e-013 0)
(2.40287e-010 -1.93386e-012 0)
(2.57094e-009 -1.67325e-012 0)
(3.25101e-008 -4.5449e-012 0)
(2.92127e-007 5.0254e-012 0)
(3.05004e-006 -5.22075e-012 0)
(2.35138e-005 -1.19115e-012 0)
(0.000199265 -9.51757e-013 0)
(0.00129626 -1.15436e-012 0)
(0.00872402 2.08391e-012 0)
(0.0466838 4.7316e-012 0)
(0.241142 5.06864e-012 0)
(0.979451 7.24175e-013 0)
(3.46482 3.44455e-012 0)
(9.79078 -2.10824e-012 0)
(23.5722 5.32291e-012 0)
(47.3964 2.26417e-012 0)
(80.1957 3.81493e-012 0)
(118.372 4.36793e-012 0)
(156.082 3.06233e-013 0)
(189.776 -2.0517e-012 0)
(219.264 -3.24873e-012 0)
(245.971 9.03308e-013 0)
(269.554 4.40902e-012 0)
(286.191 3.47376e-012 0)
(291.142 3.3402e-011 0)
(291.971 5.64631e-011 0)
(294.325 7.58374e-011 0)
(293.039 7.95474e-011 0)
(287.394 6.03073e-011 0)
(279.655 2.68717e-011 0)
(269.584 1.03154e-011 0)
(246.375 1.58598e-011 0)
(173.042 2.60537e-011 0)
(53.8491 -8.03809e-012 0)
(7.94381 -3.50972e-012 0)
(1.18648 -1.73011e-012 0)
(0.182535 -1.46178e-012 0)
(0.0290814 -2.40697e-012 0)
(0.0048502 2.08729e-012 0)
(0.00084388 8.56889e-013 0)
(0.000152954 2.62742e-012 0)
(2.86367e-005 3.50808e-013 0)
(5.49169e-006 -3.93651e-012 0)
(1.06965e-006 -2.1054e-012 0)
(2.09535e-007 5.32083e-013 0)
(4.12645e-008 -9.03136e-013 0)
(8.07777e-009 -5.29703e-013 0)
(1.58544e-009 4.48778e-012 0)
(3.13058e-010 -4.15388e-012 0)
(6.1467e-011 -1.89302e-012 0)
(7.90428e-012 5.09324e-012 0)
(-3.1596e-012 2.48897e-013 0)
(-1.18621e-011 -6.43808e-012 0)
(8.93149e-013 -2.43562e-012 0)
(4.48412e-012 -3.51336e-012 0)
(3.58245e-012 4.01071e-012 0)
(-2.69055e-012 -2.52353e-013 0)
(5.32709e-012 8.42882e-013 0)
(-3.13134e-012 -6.3322e-012 0)
(1.13191e-012 3.04996e-012 0)
(2.39795e-010 4.67643e-013 0)
(2.57083e-009 3.69422e-013 0)
(3.25101e-008 -5.79436e-012 0)
(2.92126e-007 3.25126e-012 0)
(3.05004e-006 -2.95252e-012 0)
(2.35138e-005 -1.74473e-012 0)
(0.000199265 -3.12458e-012 0)
(0.00129626 8.26791e-013 0)
(0.00872402 1.98843e-012 0)
(0.0466838 3.70601e-012 0)
(0.241142 2.3566e-012 0)
(0.979451 6.27052e-013 0)
(3.46482 3.77197e-012 0)
(9.79078 -1.0216e-012 0)
(23.5722 4.31459e-012 0)
(47.3964 4.28409e-012 0)
(80.1957 5.98429e-012 0)
(118.372 3.37505e-012 0)
(156.082 1.56756e-013 0)
(189.776 -2.13401e-012 0)
(219.264 -5.94718e-012 0)
(245.971 5.53937e-013 0)
(269.554 5.03009e-012 0)
(286.191 5.09486e-012 0)
(291.142 3.52844e-011 0)
(291.971 6.12253e-011 0)
(294.325 8.11907e-011 0)
(293.039 8.44656e-011 0)
(287.394 6.40326e-011 0)
(279.655 2.90043e-011 0)
(269.584 1.1252e-011 0)
(246.375 1.99727e-011 0)
(173.042 3.2388e-011 0)
(53.8491 -5.07271e-012 0)
(7.94381 -4.05841e-012 0)
(1.18648 -2.27585e-012 0)
(0.182535 -1.82171e-012 0)
(0.0290814 -2.24798e-013 0)
(0.0048502 7.09652e-013 0)
(0.00084388 2.07845e-013 0)
(0.000152954 2.28849e-012 0)
(2.86367e-005 1.55861e-012 0)
(5.49169e-006 -5.52711e-012 0)
(1.06965e-006 -4.95616e-012 0)
(2.09536e-007 -1.5877e-012 0)
(4.12658e-008 3.66192e-012 0)
(8.08097e-009 3.46571e-012 0)
(1.58745e-009 1.66698e-012 0)
(3.12167e-010 -1.92432e-012 0)
(5.94215e-011 -1.43425e-012 0)
(7.90872e-012 5.01583e-012 0)
(-2.25915e-012 1.22784e-012 0)
(-1.16314e-011 4.60684e-014 0)
(1.00841e-012 -7.862e-012 0)
(4.04766e-012 1.48658e-012 0)
(3.01748e-012 -2.21001e-012 0)
(-2.77832e-012 2.96548e-012 0)
(5.34768e-012 -1.23524e-012 0)
(-3.07101e-012 -6.77547e-012 0)
(1.10914e-012 4.897e-012 0)
(2.40204e-010 -1.93815e-012 0)
(2.57076e-009 -4.16901e-012 0)
(3.25102e-008 -4.45242e-012 0)
(2.92127e-007 1.68117e-012 0)
(3.05004e-006 -6.31871e-012 0)
(2.35138e-005 -3.27411e-012 0)
(0.000199265 -3.10563e-012 0)
(0.00129626 1.59119e-012 0)
(0.00872402 -9.10138e-013 0)
(0.0466838 2.23802e-012 0)
(0.241142 2.92419e-012 0)
(0.979451 5.92432e-015 0)
(3.46482 4.51896e-012 0)
(9.79078 -2.79083e-012 0)
(23.5722 4.58169e-012 0)
(47.3964 3.92658e-012 0)
(80.1957 5.20339e-012 0)
(118.372 4.91139e-012 0)
(156.082 -3.4257e-013 0)
(189.776 -2.46558e-012 0)
(219.264 -4.82228e-012 0)
(245.971 -1.65024e-012 0)
(269.554 5.06034e-012 0)
(286.191 5.11456e-012 0)
(291.142 3.5134e-011 0)
(291.971 6.32043e-011 0)
(294.325 8.52747e-011 0)
(293.039 8.6486e-011 0)
(287.394 6.027e-011 0)
(279.655 2.42932e-011 0)
(269.584 -2.83384e-012 0)
(246.375 -1.01877e-011 0)
(173.042 8.88876e-012 0)
(53.8491 -3.92181e-012 0)
(7.94381 -2.1261e-012 0)
(1.18648 -2.32371e-012 0)
(0.182535 -1.13166e-012 0)
(0.0290814 -2.78337e-012 0)
(0.0048502 -2.63221e-013 0)
(0.00084388 1.92871e-012 0)
(0.000152954 1.11643e-012 0)
(2.86367e-005 7.56302e-013 0)
(5.49169e-006 -3.92085e-012 0)
(1.06965e-006 -3.64819e-013 0)
(2.09536e-007 -2.10302e-012 0)
(4.1265e-008 6.57499e-013 0)
(8.07773e-009 -9.31298e-013 0)
(1.58493e-009 2.92898e-012 0)
(3.12605e-010 -2.11009e-012 0)
(6.22147e-011 -2.97789e-012 0)
(8.21925e-012 6.08077e-012 0)
(-3.74179e-012 -1.89563e-012 0)
(-1.19902e-011 -2.54136e-012 0)
(1.11989e-012 -6.08451e-012 0)
(4.60085e-012 -3.7098e-012 0)
(3.59921e-012 -1.41177e-012 0)
(-2.66398e-012 3.00557e-012 0)
(5.07648e-012 1.21334e-012 0)
(-2.95328e-012 -7.61867e-012 0)
(1.25798e-012 3.41261e-012 0)
(2.39539e-010 1.28847e-012 0)
(2.57074e-009 -4.36475e-012 0)
(3.25103e-008 -4.50327e-012 0)
(2.92126e-007 -2.17112e-012 0)
(3.05004e-006 -3.41357e-012 0)
(2.35138e-005 -5.32323e-012 0)
(0.000199265 -5.66279e-012 0)
(0.00129626 1.49741e-012 0)
(0.00872402 -2.63942e-012 0)
(0.0466838 2.47595e-012 0)
(0.241142 -7.69644e-013 0)
(0.979451 8.5033e-013 0)
(3.46482 4.55832e-012 0)
(9.79078 -1.54046e-012 0)
(23.5722 2.53539e-012 0)
(47.3964 3.75795e-012 0)
(80.1957 6.51633e-012 0)
(118.372 5.71879e-012 0)
(156.082 -8.86803e-013 0)
(189.776 -2.8096e-012 0)
(219.264 -6.36316e-012 0)
(245.971 2.12337e-013 0)
(269.554 5.01314e-012 0)
(286.191 6.12563e-012 0)
(291.142 3.61177e-011 0)
(291.971 6.43524e-011 0)
(294.325 8.73838e-011 0)
(293.039 9.00056e-011 0)
(287.394 5.80265e-011 0)
(279.655 1.81957e-011 0)
(269.584 -2.17961e-011 0)
(246.375 -5.27259e-011 0)
(173.042 -4.55186e-011 0)
(53.8491 -3.51316e-012 0)
(7.94381 -5.49179e-012 0)
(1.18648 -3.0768e-012 0)
(0.182535 2.73968e-013 0)
(0.0290814 -2.81198e-012 0)
(0.0048502 -2.33007e-012 0)
(0.00084388 2.63414e-013 0)
(0.000152954 1.84233e-012 0)
(2.86367e-005 1.00375e-012 0)
(5.49169e-006 -5.13567e-012 0)
(1.06965e-006 -2.40271e-012 0)
(2.09536e-007 -4.34083e-012 0)
(4.12659e-008 1.84013e-012 0)
(8.08105e-009 5.30089e-013 0)
(1.58724e-009 1.67051e-012 0)
(3.11568e-010 -5.40639e-013 0)
(6.04197e-011 4.61118e-013 0)
(8.00496e-012 2.05963e-012 0)
(-3.31938e-012 3.51228e-013 0)
(-1.16792e-011 2.17941e-012 0)
(1.06854e-012 -5.87186e-012 0)
(4.18826e-012 2.49878e-012 0)
(3.20153e-012 -3.01538e-012 0)
(-2.71268e-012 -4.5218e-013 0)
(5.07325e-012 -1.31693e-012 0)
(-3.01145e-012 -9.92789e-012 0)
(1.35474e-012 3.00227e-012 0)
(2.39971e-010 -3.20091e-013 0)
(2.5706e-009 -4.52158e-012 0)
(3.25102e-008 -2.58144e-012 0)
(2.92127e-007 -3.34572e-012 0)
(3.05004e-006 -4.75191e-012 0)
(2.35138e-005 -6.65477e-012 0)
(0.000199265 -6.20251e-012 0)
(0.00129626 1.24819e-013 0)