/*--------------------------------*- C++ -*----------------------------------*\
| =========                 |                                                 |
| \\      /  F ield         | OpenFOAM: The Open Source CFD Toolbox           |
|  \\    /   O peration     | Version:  5.x                                   |
|   \\  /    A nd           | Web:      www.OpenFOAM.org                      |
|    \\/     M anipulation  |                                                 |
\*---------------------------------------------------------------------------*/
/*   Windows 32 and 64 bit porting by blueCAPE: http://www.bluecape.com.pt   *\
|  Based on Windows porting (2.0.x v4) by Symscape: http://www.symscape.com   |
\*---------------------------------------------------------------------------*/
FoamFile
{
    version     2.0;
    format      ascii;
    class       volVectorField;
    location    "0.002";
    object      U_0;
}
// * * * * * * * * * * * * * * * * * * * * * * * * * * * * * * * * * * * * * //

dimensions      [0 1 -1 0 0 0 0];

internalField   nonuniform List<vector> 
10000
(
(7.42477e-013 -2.5207e-013 0)
(3.25551e-012 2.45305e-012 0)
(2.29839e-012 3.98923e-014 0)
(-3.06735e-012 -3.14797e-012 0)
(7.08264e-012 5.33907e-013 0)
(-2.89302e-012 -1.00992e-012 0)
(-2.50428e-013 -2.2821e-012 0)
(2.38361e-010 -2.2713e-013 0)
(2.54521e-009 2.85804e-013 0)
(3.22051e-008 1.75495e-013 0)
(2.89517e-007 -4.52804e-013 0)
(3.0248e-006 4.18189e-013 0)
(2.33296e-005 -8.47192e-013 0)
(0.000197835 -1.07737e-012 0)
(0.00128756 5.67426e-013 0)
(0.00867121 1.80846e-012 0)
(0.0464243 4.60499e-012 0)
(0.23998 2.39426e-012 0)
(0.975416 8.96659e-013 0)
(3.45326 2.28237e-012 0)
(9.76448 3.2114e-012 0)
(23.524 -1.52629e-012 0)
(47.3259 -7.90055e-013 0)
(80.1178 -2.08865e-012 0)
(118.304 -8.76781e-013 0)
(156.028 -1.11863e-013 0)
(189.739 2.14601e-012 0)
(219.242 1.38967e-012 0)
(245.971 1.64278e-012 0)
(269.572 -1.97879e-013 0)
(286.188 2.51198e-012 0)
(291.122 -2.60015e-012 0)
(291.974 2.52595e-012 0)
(294.335 4.37075e-012 0)
(293.036 7.12557e-012 0)
(287.375 9.37933e-012 0)
(279.622 1.08078e-011 0)
(269.507 1.59608e-011 0)
(246.103 2.22759e-011 0)
(172.323 2.02524e-011 0)
(53.2387 -1.25878e-012 0)
(7.84223 2.56393e-012 0)
(1.17069 -4.34841e-012 0)
(0.180154 -6.67179e-012 0)
(0.028707 -8.39233e-013 0)
(0.00478868 1.81114e-012 0)
(0.00083337 1.08699e-012 0)
(0.000151077 2.83809e-013 0)
(2.82876e-005 -3.86164e-013 0)
(5.42454e-006 2.84965e-012 0)
(1.05642e-006 4.09602e-012 0)
(2.06891e-007 2.22162e-012 0)
(4.07311e-008 1.40618e-012 0)
(7.97152e-009 -2.79439e-012 0)
(1.56464e-009 -5.27611e-013 0)
(3.08542e-010 -6.46955e-012 0)
(6.03647e-011 -1.38355e-012 0)
(1.084e-011 -1.7191e-012 0)
(4.20682e-012 1.84471e-012 0)
(-8.81025e-012 -8.93464e-012 0)
(9.90222e-013 1.39852e-012 0)
(3.27323e-012 -9.26889e-012 0)
(2.06216e-012 5.81898e-013 0)
(-3.0706e-012 -1.03273e-012 0)
(7.18238e-012 2.26387e-012 0)
(-3.02366e-012 -2.40306e-012 0)
(-2.23035e-013 -6.78767e-013 0)
(2.38483e-010 5.07921e-012 0)
(2.54527e-009 -4.2903e-012 0)
(3.22051e-008 6.22848e-013 0)
(2.89517e-007 -1.13651e-012 0)
(3.0248e-006 1.78213e-012 0)
(2.33296e-005 7.16232e-013 0)
(0.000197835 -2.03788e-012 0)
(0.00128756 4.1806e-012 0)
(0.00867121 1.18197e-012 0)
(0.0464243 3.5408e-012 0)
(0.23998 7.37708e-013 0)
(0.975416 1.88252e-012 0)
(3.45326 -3.57989e-013 0)
(9.76448 -1.54318e-012 0)
(23.524 -1.49127e-012 0)
(47.3259 -6.12317e-013 0)
(80.1178 3.84876e-013 0)
(118.304 -7.05953e-012 0)
(156.028 -2.2804e-012 0)
(189.739 -1.27889e-012 0)
(219.242 -1.1045e-012 0)
(245.971 3.67154e-013 0)
(269.572 1.6804e-012 0)
(286.188 4.99548e-012 0)
(291.122 3.43553e-012 0)
(291.974 1.3515e-011 0)
(294.335 1.57793e-011 0)
(293.036 1.77354e-011 0)
(287.375 1.63483e-011 0)
(279.622 1.41282e-011 0)
(269.507 1.82321e-011 0)
(246.103 2.71196e-011 0)
(172.323 3.51103e-011 0)
(53.2387 -1.21506e-012 0)
(7.84223 -2.74933e-012 0)
(1.17069 -1.2224e-012 0)
(0.180154 3.00695e-012 0)
(0.028707 2.50077e-012 0)
(0.00478868 -6.65118e-012 0)
(0.00083337 4.75765e-012 0)
(0.000151077 -8.69074e-012 0)
(2.82876e-005 2.21442e-013 0)
(5.42454e-006 -7.96243e-012 0)
(1.05642e-006 -3.38714e-012 0)
(2.0689e-007 2.22419e-012 0)
(4.07303e-008 1.43093e-013 0)
(7.97117e-009 2.97436e-012 0)
(1.56387e-009 -2.65351e-012 0)
(3.08443e-010 8.75741e-012 0)
(6.11716e-011 7.65374e-013 0)
(1.14443e-011 -6.89155e-013 0)
(2.84448e-012 -9.51152e-013 0)
(-1.08826e-011 -5.07899e-012 0)
(3.36748e-013 -3.33572e-014 0)
(3.25291e-012 1.49635e-012 0)
(2.59296e-012 4.29699e-012 0)
(-2.99253e-012 2.60482e-012 0)
(7.04495e-012 5.87245e-012 0)
(-3.02849e-012 -2.93401e-013 0)
(1.01266e-013 4.71148e-012 0)
(2.3818e-010 9.45992e-013 0)
(2.54498e-009 -1.52986e-012 0)
(3.22052e-008 -1.54848e-012 0)
(2.89517e-007 1.3327e-013 0)
(3.0248e-006 2.02455e-012 0)
(2.33296e-005 -2.99687e-013 0)
(0.000197835 -2.55538e-012 0)
(0.00128756 4.16266e-012 0)
(0.00867121 2.18395e-013 0)
(0.0464243 4.21216e-012 0)
(0.23998 6.09426e-012 0)
(0.975416 -1.67256e-012 0)
(3.45326 -8.52033e-013 0)
(9.76448 4.08754e-013 0)
(23.524 -9.14849e-013 0)
(47.3259 1.95808e-012 0)
(80.1178 1.21455e-012 0)
(118.304 -2.53972e-012 0)
(156.028 -2.77338e-012 0)
(189.739 4.36971e-013 0)
(219.242 5.04017e-013 0)
(245.971 2.43635e-012 0)
(269.572 7.81732e-013 0)
(286.188 6.04342e-012 0)
(291.122 1.26861e-011 0)
(291.974 1.49893e-011 0)
(294.335 1.67047e-011 0)
(293.036 1.22984e-011 0)
(287.375 -6.66567e-013 0)
(279.622 -7.70496e-012 0)
(269.507 -7.8456e-012 0)
(246.103 -1.22482e-011 0)
(172.323 5.3367e-012 0)
(53.2387 -4.43559e-013 0)
(7.84223 1.92188e-012 0)
(1.17069 -2.76143e-012 0)
(0.180154 -5.51728e-012 0)
(0.028707 -1.99402e-013 0)
(0.00478868 -3.89012e-012 0)
(0.00083337 6.81116e-012 0)
(0.000151077 -4.64198e-012 0)
(2.82876e-005 -1.01303e-012 0)
(5.42454e-006 4.8614e-013 0)
(1.05642e-006 4.04834e-012 0)
(2.06891e-007 5.18582e-012 0)
(4.07312e-008 2.44471e-012 0)
(7.97098e-009 -9.86993e-013 0)
(1.56565e-009 8.15552e-014 0)
(3.08996e-010 2.62223e-013 0)
(5.87154e-011 2.08955e-013 0)
(1.06247e-011 -6.31149e-012 0)
(3.34209e-012 -4.26542e-012 0)
(-9.59598e-012 -1.26488e-011 0)
(8.71797e-013 -2.37049e-012 0)
(3.43665e-012 -4.44121e-012 0)
(2.12921e-012 1.3784e-012 0)
(-2.99983e-012 2.15742e-012 0)
(7.05076e-012 6.07167e-012 0)
(-3.07252e-012 -1.64383e-012 0)
(-1.65335e-013 2.60408e-012 0)
(2.38191e-010 5.71023e-012 0)
(2.54514e-009 -1.24459e-012 0)
(3.22052e-008 3.59618e-012 0)
(2.89517e-007 -1.99092e-012 0)
(3.0248e-006 2.11417e-013 0)
(2.33296e-005 -4.36604e-013 0)
(0.000197835 -5.58557e-012 0)
(0.00128756 4.50128e-012 0)
(0.00867121 2.51033e-012 0)
(0.0464243 3.60107e-012 0)
(0.23998 5.18506e-012 0)
(0.975416 5.22357e-013 0)
(3.45326 -4.19671e-013 0)
(9.76448 2.87463e-013 0)
(23.524 -1.68924e-012 0)
(47.3259 5.77e-013 0)
(80.1178 2.64199e-013 0)
(118.304 -3.83964e-012 0)
(156.028 -2.24464e-012 0)
(189.739 -2.0609e-012 0)
(219.242 -1.03764e-012 0)
(245.971 2.02137e-012 0)
(269.572 2.21477e-012 0)
(286.188 5.72027e-012 0)
(291.122 1.39897e-011 0)
(291.974 1.55246e-011 0)
(294.335 1.55245e-011 0)
(293.036 5.66807e-012 0)
(287.375 -1.63158e-011 0)
(279.622 -3.11739e-011 0)
(269.507 -4.38596e-011 0)
(246.103 -5.4962e-011 0)
(172.323 -3.77824e-011 0)
(53.2387 -3.77687e-012 0)
(7.84223 -1.68595e-012 0)
(1.17069 2.09391e-012 0)
(0.180154 7.27065e-013 0)
(0.028707 1.71818e-012 0)
(0.00478868 -5.07822e-012 0)
(0.00083337 5.76841e-012 0)
(0.000151077 -6.12104e-012 0)
(2.82876e-005 4.85119e-013 0)
(5.42455e-006 -7.16524e-012 0)
(1.05642e-006 -3.18426e-012 0)
(2.0689e-007 -8.49428e-013 0)
(4.07294e-008 5.91479e-013 0)
(7.97088e-009 4.03262e-013 0)
(1.56419e-009 2.54034e-012 0)
(3.08477e-010 5.98976e-012 0)
(5.99894e-011 4.5614e-012 0)
(1.07361e-011 -6.94611e-013 0)
(1.52793e-012 -7.05756e-013 0)
(-1.23855e-011 -6.74713e-012 0)
(2.8609e-013 -1.1457e-012 0)
(3.40386e-012 4.81094e-013 0)
(2.83224e-012 2.95984e-012 0)
(-2.83198e-012 2.29258e-012 0)
(6.87859e-012 1.54616e-012 0)
(-3.131e-012 -6.43326e-012 0)
(3.78418e-013 3.51528e-012 0)
(2.3802e-010 9.73699e-013 0)
(2.54492e-009 1.67032e-012 0)
(3.22052e-008 2.98135e-012 0)
(2.89517e-007 -2.33389e-012 0)
(3.0248e-006 1.31544e-012 0)
(2.33296e-005 -7.23809e-013 0)
(0.000197835 -1.03814e-012 0)
(0.00128756 7.12386e-012 0)
(0.00867121 -3.98802e-012 0)
(0.0464243 2.60648e-012 0)
(0.23998 9.41378e-012 0)
(0.975416 2.28245e-013 0)
(3.45326 3.48377e-013 0)
(9.76448 -4.53493e-013 0)
(23.524 -1.3975e-012 0)
(47.3259 6.51981e-013 0)
(80.1178 3.00437e-012 0)
(118.304 -4.92521e-013 0)
(156.028 -2.31036e-014 0)
(189.739 -9.29116e-013 0)
(219.242 -3.30735e-012 0)
(245.971 5.83409e-013 0)
(269.572 1.92442e-012 0)
(286.188 3.19488e-012 0)
(291.122 8.7887e-012 0)
(291.974 1.89016e-011 0)
(294.335 1.58655e-011 0)
(293.036 6.04e-012 0)
(287.375 -8.87461e-012 0)
(279.622 -2.60097e-011 0)
(269.507 -3.60404e-011 0)
(246.103 -4.86072e-011 0)
(172.323 -3.87549e-011 0)
(53.2387 -5.53637e-012 0)
(7.84223 -8.7258e-013 0)
(1.17069 -3.47257e-012 0)
(0.180154 -4.01044e-012 0)
(0.028707 7.19477e-013 0)
(0.00478868 -3.46544e-012 0)
(0.00083337 7.04719e-012 0)
(0.000151077 -2.11904e-012 0)
(2.82876e-005 -1.89295e-012 0)
(5.42454e-006 -6.53504e-012 0)
(1.05642e-006 3.21225e-012 0)
(2.06892e-007 5.16867e-013 0)
(4.07313e-008 2.53537e-012 0)
(7.97123e-009 -4.03093e-013 0)
(1.56652e-009 1.23278e-012 0)
(3.09302e-010 8.03734e-013 0)
(5.7657e-011 2.68899e-012 0)
(9.69356e-012 2.72207e-012 0)
(2.25164e-012 -8.39825e-012 0)
(-1.07381e-011 -2.93827e-012 0)
(9.05735e-013 -3.82583e-012 0)
(3.56541e-012 -4.75689e-012 0)
(2.20543e-012 2.15855e-012 0)
(-3.01291e-012 1.93241e-012 0)
(6.7044e-012 2.28644e-012 0)
(-3.02064e-012 -2.69158e-012 0)
(1.48836e-013 3.65991e-012 0)
(2.38132e-010 -2.47652e-012 0)
(2.54521e-009 -7.6644e-013 0)
(3.2205e-008 1.7686e-012 0)
(2.89517e-007 -9.45398e-013 0)
(3.0248e-006 1.27939e-012 0)
(2.33296e-005 -3.36516e-013 0)
(0.000197835 -2.97854e-012 0)
(0.00128756 6.83505e-012 0)
(0.00867121 9.46512e-014 0)
(0.0464243 6.0875e-012 0)
(0.23998 7.78666e-012 0)
(0.975416 -6.01326e-013 0)
(3.45326 -4.52561e-013 0)
(9.76448 -3.17946e-013 0)
(23.524 -2.90319e-012 0)
(47.3259 1.50412e-012 0)
(80.1178 1.42293e-012 0)
(118.304 -1.97994e-012 0)
(156.028 -1.67569e-012 0)
(189.739 -2.30538e-013 0)
(219.242 -1.98253e-012 0)
(245.971 4.68636e-013 0)
(269.572 4.97395e-013 0)
(286.188 5.5208e-012 0)
(291.122 7.20718e-012 0)
(291.974 2.19151e-011 0)
(294.335 2.57086e-011 0)
(293.036 2.41496e-011 0)
(287.375 1.53328e-011 0)
(279.622 -3.35986e-012 0)
(269.507 -9.16095e-012 0)
(246.103 -6.00076e-012 0)
(172.323 -1.49545e-011 0)
(53.2387 -6.99378e-012 0)
(7.84223 -3.50483e-012 0)
(1.17069 -1.14043e-012 0)
(0.180154 -2.13815e-012 0)
(0.028707 2.42268e-012 0)
(0.00478868 -3.12588e-012 0)
(0.00083337 4.53782e-012 0)
(0.000151077 -4.68643e-013 0)
(2.82876e-005 -2.50491e-012 0)
(5.42455e-006 -7.10272e-012 0)
(1.05642e-006 -2.96754e-012 0)
(2.0689e-007 -4.60926e-012 0)
(4.07293e-008 -1.85459e-012 0)
(7.97078e-009 3.73375e-012 0)
(1.56435e-009 1.88513e-012 0)
(3.08745e-010 5.3269e-012 0)
(6.02062e-011 2.88797e-012 0)
(8.8216e-012 -3.66617e-013 0)
(6.50019e-013 -3.22563e-012 0)
(-1.13341e-011 -6.86026e-013 0)
(2.79425e-013 -2.00176e-012 0)
(3.63025e-012 -1.99918e-012 0)
(3.02613e-012 4.3058e-013 0)
(-2.8428e-012 4.58687e-012 0)
(6.71868e-012 3.29537e-012 0)
(-3.05539e-012 -2.97865e-012 0)
(3.84702e-013 1.44078e-012 0)
(2.3783e-010 -3.26267e-012 0)
(2.5451e-009 -2.13495e-012 0)
(3.22051e-008 2.20207e-012 0)
(2.89517e-007 1.71144e-012 0)
(3.0248e-006 -9.46128e-013 0)
(2.33296e-005 1.31369e-012 0)
(0.000197835 4.41971e-013 0)
(0.00128756 6.55449e-012 0)
(0.00867121 4.85368e-013 0)
(0.0464243 4.32664e-012 0)
(0.23998 1.00037e-011 0)
(0.975416 1.66903e-012 0)
(3.45326 -8.61225e-013 0)
(9.76448 -4.15301e-013 0)
(23.524 -6.57411e-013 0)
(47.3259 -1.24707e-012 0)
(80.1178 4.3951e-012 0)
(118.304 1.54652e-012 0)
(156.028 7.41728e-013 0)
(189.739 -2.63778e-012 0)
(219.242 -3.9911e-012 0)
(245.971 -1.07889e-012 0)
(269.572 7.24054e-013 0)
(286.188 4.34571e-012 0)
(291.122 1.00899e-011 0)
(291.974 3.07929e-011 0)
(294.335 3.6837e-011 0)
(293.036 4.01594e-011 0)
(287.375 2.99742e-011 0)
(279.622 1.26115e-011 0)
(269.507 1.22972e-011 0)
(246.103 2.5524e-011 0)
(172.323 1.43579e-011 0)
(53.2387 -2.06351e-012 0)
(7.84223 -1.52544e-012 0)
(1.17069 -5.36549e-013 0)
(0.180154 -5.35321e-012 0)
(0.028707 3.38009e-013 0)
(0.00478868 1.20441e-013 0)
(0.00083337 5.28072e-012 0)
(0.000151077 3.83129e-012 0)
(2.82876e-005 -8.07227e-013 0)
(5.42454e-006 -6.4987e-012 0)
(1.05642e-006 7.86019e-013 0)
(2.06892e-007 1.84821e-012 0)
(4.07324e-008 -2.50926e-013 0)
(7.97165e-009 2.13179e-012 0)
(1.56668e-009 -3.43242e-012 0)
(3.09444e-010 2.01529e-012 0)
(5.68355e-011 1.01498e-012 0)
(8.78112e-012 -3.94114e-013 0)
(2.19464e-012 -6.20913e-012 0)
(-1.04032e-011 -2.80037e-012 0)
(8.83612e-013 -4.05268e-012 0)
(3.63072e-012 -3.21344e-012 0)
(2.46887e-012 3.64048e-012 0)
(-2.90916e-012 3.44279e-012 0)
(6.42346e-012 2.6238e-012 0)
(-3.09032e-012 -5.25065e-012 0)
(1.2661e-013 3.23213e-012 0)
(2.37991e-010 -3.7879e-012 0)
(2.54543e-009 -3.66046e-012 0)
(3.22051e-008 -9.5248e-013 0)
(2.89517e-007 8.25148e-013 0)
(3.0248e-006 -5.38289e-012 0)
(2.33296e-005 4.64621e-013 0)
(0.000197835 1.13737e-012 0)
(0.00128756 5.38783e-012 0)
(0.00867121 4.39528e-012 0)
(0.0464243 4.92284e-012 0)
(0.23998 9.48697e-012 0)
(0.975416 -7.27925e-013 0)
(3.45326 3.29191e-013 0)
(9.76448 -4.14861e-013 0)
(23.524 -4.42843e-012 0)
(47.3259 1.32975e-013 0)
(80.1178 2.2791e-012 0)
(118.304 -9.33439e-013 0)
(156.028 -1.82395e-014 0)
(189.739 -2.76865e-012 0)
(219.242 -4.41919e-012 0)
(245.971 7.96016e-013 0)
(269.572 1.47672e-012 0)
(286.188 6.62729e-012 0)
(291.122 1.71247e-011 0)
(291.974 3.59121e-011 0)
(294.335 4.32876e-011 0)
(293.036 4.81307e-011 0)
(287.375 3.24663e-011 0)
(279.622 1.41539e-011 0)
(269.507 1.01377e-011 0)
(246.103 1.5047e-011 0)
(172.323 1.16584e-011 0)
(53.2387 1.88204e-013 0)
(7.84223 -4.02491e-012 0)
(1.17069 -4.11436e-014 0)
(0.180154 -1.4938e-014 0)
(0.028707 2.89128e-013 0)
(0.00478868 -9.47235e-013 0)
(0.00083337 6.2903e-012 0)
(0.000151077 3.17956e-012 0)
(2.82876e-005 -1.6984e-012 0)
(5.42455e-006 -4.24187e-012 0)
(1.05642e-006 -1.92027e-012 0)
(2.0689e-007 1.47927e-012 0)
(4.07295e-008 -6.36974e-013 0)
(7.97037e-009 2.37932e-012 0)
(1.56448e-009 1.30125e-012 0)
(3.09385e-010 1.73853e-012 0)
(5.97504e-011 4.69387e-012 0)
(7.54831e-012 9.58482e-013 0)
(3.7131e-013 -4.42918e-012 0)
(-1.06974e-011 -3.23291e-012 0)
(3.38943e-013 -3.3994e-012 0)
(3.87955e-012 -5.61156e-013 0)
(3.21572e-012 -3.15477e-012 0)
(-2.87278e-012 3.09659e-012 0)
(6.40792e-012 5.82084e-013 0)
(-3.01017e-012 -5.25577e-012 0)
(4.03936e-013 2.10018e-013 0)
(2.37576e-010 1.22567e-012 0)
(2.54523e-009 -7.93592e-013 0)
(3.22053e-008 -5.99694e-013 0)
(2.89517e-007 3.88134e-012 0)
(3.0248e-006 -3.61291e-012 0)
(2.33296e-005 2.08482e-012 0)
(0.000197835 2.953e-012 0)
(0.00128756 4.20435e-012 0)
(0.00867121 5.90849e-012 0)
(0.0464243 5.21208e-012 0)
(0.23998 1.05781e-011 0)
(0.975416 -1.43704e-012 0)
(3.45326 -1.03213e-012 0)
(9.76448 -2.7699e-012 0)
(23.524 1.71767e-012 0)
(47.3259 -4.58032e-013 0)
(80.1178 2.72158e-012 0)
(118.304 1.39003e-012 0)
(156.028 5.78577e-013 0)
(189.739 -7.80211e-013 0)
(219.242 -4.67737e-012 0)
(245.971 -6.41488e-013 0)
(269.572 1.09568e-012 0)
(286.188 8.75792e-012 0)
(291.122 2.48407e-011 0)
(291.974 3.90849e-011 0)
(294.335 4.82291e-011 0)
(293.036 5.13501e-011 0)
(287.375 2.55275e-011 0)
(279.622 8.13872e-013 0)
(269.507 -1.90929e-011 0)
(246.103 -3.37541e-011 0)
(172.323 -2.26604e-011 0)
(53.2387 1.29606e-012 0)
(7.84223 -4.54168e-012 0)
(1.17069 1.84191e-012 0)
(0.180154 -1.58937e-012 0)
(0.028707 -1.34295e-012 0)
(0.00478868 1.22384e-012 0)
(0.00083337 5.13065e-012 0)
(0.000151077 3.49381e-012 0)
(2.82876e-005 3.54115e-012 0)
(5.42454e-006 -3.52183e-012 0)
(1.05642e-006 1.62154e-012 0)
(2.06892e-007 2.73971e-012 0)
(4.07324e-008 -1.68548e-012 0)
(7.9719e-009 5.53447e-012 0)
(1.56645e-009 -2.06186e-012 0)
(3.09824e-010 3.31909e-012 0)
(5.6857e-011 -9.103e-013 0)
(7.48989e-012 3.71602e-012 0)
(1.40169e-012 -3.40724e-012 0)
(-1.01393e-011 -6.96541e-012 0)
(9.28412e-013 -4.1739e-012 0)
(3.66675e-012 -2.59818e-012 0)
(2.6164e-012 6.4826e-013 0)
(-2.79816e-012 4.471e-012 0)
(6.15361e-012 5.46334e-012 0)
(-3.10361e-012 -5.21033e-012 0)
(3.72321e-013 1.59999e-012 0)
(2.37945e-010 5.81752e-013 0)
(2.54536e-009 -2.11673e-012 0)
(3.22053e-008 -9.49736e-013 0)
(2.89517e-007 2.4055e-012 0)
(3.0248e-006 -6.13341e-012 0)
(2.33296e-005 8.79079e-013 0)
(0.000197835 1.97107e-012 0)
(0.00128756 3.1299e-012 0)
(0.00867121 8.08079e-012 0)
(0.0464243 5.49311e-012 0)
(0.23998 1.04872e-011 0)
(0.975416 5.68371e-013 0)
(3.45326 -1.90003e-013 0)
(9.76448 1.2935e-012 0)
(23.524 -3.14917e-013 0)
(47.3259 -1.4059e-017 0)
(80.1178 1.66658e-012 0)
(118.304 1.08784e-012 0)
(156.028 2.95765e-012 0)
(189.739 -1.59881e-013 0)
(219.242 -2.55011e-012 0)
(245.971 2.04379e-012 0)
(269.572 1.16624e-012 0)
(286.188 8.29428e-012 0)
(291.122 2.95426e-011 0)
(291.974 4.36471e-011 0)
(294.335 4.97843e-011 0)
(293.036 5.16503e-011 0)
(287.375 2.17048e-011 0)
(279.622 -1.10419e-011 0)
(269.507 -4.03478e-011 0)
(246.103 -7.31657e-011 0)
(172.323 -6.49273e-011 0)
(53.2387 -1.95688e-012 0)
(7.84223 -1.78708e-012 0)
(1.17069 1.95179e-012 0)
(0.180154 -3.17833e-013 0)
(0.028707 2.16133e-013 0)
(0.00478868 2.07029e-012 0)
(0.00083337 5.82142e-012 0)
(0.000151077 2.23561e-012 0)
(2.82876e-005 -5.47907e-013 0)
(5.42455e-006 -4.00944e-012 0)
(1.05642e-006 -2.82341e-013 0)
(2.0689e-007 4.79559e-013 0)
(4.073e-008 -3.03773e-012 0)
(7.97026e-009 1.59609e-012 0)
(1.56429e-009 2.74112e-012 0)
(3.09636e-010 2.68411e-012 0)
(5.9724e-011 -3.03384e-012 0)
(7.1871e-012 2.81207e-012 0)
(-1.17644e-012 -3.03998e-012 0)
(-1.12255e-011 -5.89627e-012 0)
(3.98135e-013 -2.65306e-012 0)
(4.0306e-012 -4.60305e-013 0)
(3.40238e-012 -2.40234e-012 0)
(-2.71997e-012 3.15994e-012 0)
(6.0843e-012 2.87912e-012 0)
(-3.16049e-012 -6.07825e-012 0)
(6.0734e-013 1.62179e-012 0)
(2.3746e-010 -4.91512e-013 0)
(2.54517e-009 -2.20867e-012 0)
(3.22055e-008 -9.70539e-013 0)
(2.89516e-007 5.57899e-012 0)
(3.0248e-006 -3.52926e-012 0)
(2.33296e-005 1.11219e-012 0)
(0.000197835 1.78634e-012 0)
(0.00128756 2.27829e-012 0)
(0.00867121 6.58688e-012 0)
(0.0464243 5.3213e-012 0)
(0.23998 9.7519e-012 0)
(0.975416 7.21232e-013 0)
(3.45326 -1.24259e-013 0)
(9.76448 -2.6791e-012 0)
(23.524 1.72917e-012 0)
(47.3259 3.76621e-012 0)
(80.1178 5.49474e-013 0)
(118.304 3.1742e-012 0)
(156.028 2.18172e-012 0)
(189.739 -1.39317e-012 0)
(219.242 -4.05256e-012 0)
(245.971 1.75985e-012 0)
(269.572 2.67301e-012 0)
(286.188 7.85569e-012 0)
(291.122 3.10297e-011 0)
(291.974 4.50881e-011 0)
(294.335 5.44626e-011 0)
(293.036 5.33991e-011 0)
(287.375 2.31225e-011 0)
(279.622 -1.28173e-011 0)
(269.507 -4.81211e-011 0)
(246.103 -7.96934e-011 0)
(172.323 -8.28256e-011 0)
(53.2387 -8.16865e-012 0)
(7.84223 -3.2692e-012 0)
(1.17069 2.63742e-012 0)
(0.180154 -1.13262e-012 0)
(0.028707 3.49302e-013 0)
(0.00478868 1.21935e-012 0)
(0.00083337 2.88389e-012 0)
(0.000151077 1.49236e-012 0)
(2.82876e-005 4.55347e-012 0)
(5.42454e-006 -4.94239e-012 0)
(1.05642e-006 -1.5579e-012 0)
(2.06892e-007 1.21825e-012 0)
(4.07325e-008 2.06353e-013 0)
(7.97258e-009 6.15553e-012 0)
(1.5666e-009 1.24133e-012 0)
(3.09025e-010 2.55916e-012 0)
(5.69345e-011 -4.80024e-012 0)
(7.48771e-012 4.91724e-012 0)
(1.33912e-014 -1.55767e-012 0)
(-1.06059e-011 -2.84468e-012 0)
(9.87508e-013 -8.60872e-012 0)
(3.67212e-012 1.24874e-013 0)
(2.75265e-012 8.78264e-013 0)
(-2.63129e-012 4.20456e-012 0)
(5.84526e-012 2.19905e-012 0)
(-3.12515e-012 -9.89833e-012 0)
(5.53906e-013 3.11345e-012 0)
(2.37797e-010 -2.50178e-012 0)
(2.54533e-009 -2.78095e-012 0)
(3.22056e-008 -2.41202e-012 0)
(2.89517e-007 4.20872e-012 0)
(3.0248e-006 -7.44342e-012 0)
(2.33296e-005 1.29893e-012 0)
(0.000197835 1.33753e-012 0)
(0.00128756 -1.31897e-013 0)
(0.00867121 6.80855e-012 0)
(0.0464243 5.46493e-012 0)
(0.23998 8.60668e-012 0)
(0.975416 4.46634e-013 0)
(3.45326 1.73658e-013 0)
(9.76448 -2.27273e-012 0)
(23.524 1.68148e-012 0)
(47.3259 2.64273e-012 0)
(80.1178 2.86076e-012 0)
(118.304 2.32132e-012 0)
(156.028 -3.55347e-014 0)
(189.739 -1.16165e-012 0)
(219.242 -3.45984e-012 0)
(245.971 1.40367e-012 0)
(269.572 3.15011e-012 0)
(286.188 6.83154e-012 0)
(291.122 3.16836e-011 0)
(291.974 4.9962e-011 0)
(294.335 6.07909e-011 0)
(293.036 5.7804e-011 0)
(287.375 3.31802e-011 0)
(279.622 -2.78123e-012 0)
(269.507 -3.22249e-011 0)
(246.103 -5.67448e-011 0)
(172.323 -5.91627e-011 0)
(53.2387 -8.22709e-012 0)
(7.84223 -2.15372e-012 0)
(1.17069 8.8164e-013 0)
(0.180154 -5.33097e-013 0)
(0.028707 7.0927e-013 0)
(0.00478868 1.44495e-012 0)
(0.00083337 3.32281e-012 0)
(0.000151077 2.66315e-012 0)
(2.82876e-005 4.09771e-013 0)
(5.42455e-006 -4.03277e-012 0)
(1.05642e-006 -2.39396e-012 0)
(2.0689e-007 2.25389e-012 0)
(4.07306e-008 -1.19068e-012 0)
(7.97053e-009 4.31623e-012 0)
(1.56389e-009 3.19809e-012 0)
(3.08807e-010 2.39189e-012 0)
(5.9981e-011 -1.89203e-012 0)
(7.56247e-012 4.44599e-012 0)
(-2.10294e-012 -1.91832e-012 0)
(-1.13635e-011 -1.41214e-012 0)
(6.7408e-013 -2.75088e-012 0)
(4.27182e-012 -8.99845e-013 0)
(3.52906e-012 3.04269e-012 0)
(-2.67679e-012 3.53661e-012 0)
(5.62494e-012 1.89316e-012 0)
(-3.12154e-012 -6.49264e-012 0)
(8.3618e-013 3.18232e-013 0)
(2.37282e-010 -1.27001e-012 0)
(2.54517e-009 -1.81458e-012 0)
(3.22057e-008 -4.61474e-012 0)
(2.89516e-007 7.21226e-012 0)
(3.0248e-006 -3.90725e-012 0)
(2.33296e-005 5.08989e-013 0)
(0.000197835 -9.22198e-013 0)
(0.00128756 -5.25615e-013 0)
(0.00867121 5.99177e-012 0)
(0.0464243 5.68746e-012 0)
(0.23998 6.53824e-012 0)
(0.975416 2.153e-012 0)
(3.45326 1.87917e-012 0)
(9.76448 -2.41266e-012 0)
(23.524 3.99113e-012 0)
(47.3259 2.34286e-012 0)
(80.1178 3.78994e-012 0)
(118.304 1.69983e-012 0)
(156.028 3.02766e-012 0)
(189.739 -2.10283e-012 0)
(219.242 -2.60605e-012 0)
(245.971 1.86575e-012 0)
(269.572 4.7916e-012 0)
(286.188 5.12366e-012 0)
(291.122 3.37079e-011 0)
(291.974 5.46028e-011 0)
(294.335 6.80528e-011 0)
(293.036 6.81272e-011 0)
(287.375 4.67962e-011 0)
(279.622 1.06295e-011 0)
(269.507 -1.33837e-011 0)
(246.103 -1.86512e-011 0)
(172.323 -1.81245e-011 0)
(53.2387 -1.07804e-011 0)
(7.84223 -5.02302e-012 0)
(1.17069 3.41971e-013 0)
(0.180154 -6.51436e-013 0)
(0.028707 9.56072e-013 0)
(0.00478868 2.81195e-012 0)
(0.00083337 2.82914e-012 0)
(0.000151077 8.54133e-013 0)
(2.82876e-005 2.78347e-012 0)
(5.42454e-006 -6.68876e-012 0)
(1.05643e-006 -3.31795e-012 0)
(2.06892e-007 -1.32735e-012 0)
(4.07326e-008 3.53287e-012 0)
(7.97297e-009 3.17345e-012 0)
(1.56626e-009 8.17937e-013 0)
(3.08436e-010 4.8214e-013 0)
(5.73286e-011 4.27737e-013 0)
(7.49303e-012 6.34999e-012 0)
(-7.43413e-013 2.04298e-012 0)
(-1.07102e-011 -2.20852e-012 0)
(1.03571e-012 -6.47174e-012 0)
(3.84084e-012 1.53846e-012 0)
(2.90237e-012 2.03543e-012 0)
(-2.67777e-012 4.25462e-012 0)
(5.52604e-012 1.13394e-012 0)
(-3.15141e-012 -6.18596e-012 0)
(7.49388e-013 6.67286e-013 0)
(2.37707e-010 -2.05524e-012 0)
(2.54521e-009 -1.67946e-012 0)
(3.22059e-008 -4.58904e-012 0)
(2.89517e-007 5.09009e-012 0)
(3.0248e-006 -5.29177e-012 0)
(2.33296e-005 -1.14544e-012 0)
(0.000197835 -9.63277e-013 0)
(0.00128756 -1.18602e-012 0)
(0.00867121 2.05436e-012 0)
(0.0464243 4.70029e-012 0)
(0.23998 5.12148e-012 0)
(0.975416 7.66169e-013 0)
(3.45326 3.49022e-012 0)
(9.76448 -2.10624e-012 0)
(23.524 5.33081e-012 0)
(47.3259 2.25802e-012 0)
(80.1178 3.84047e-012 0)
(118.304 4.42115e-012 0)
(156.028 3.4442e-013 0)
(189.739 -2.04798e-012 0)
(219.242 -3.24506e-012 0)
(245.971 9.21731e-013 0)
(269.572 4.39279e-012 0)
(286.188 3.51893e-012 0)
(291.122 3.35646e-011 0)
(291.974 5.65248e-011 0)
(294.335 7.58991e-011 0)
(293.036 7.96087e-011 0)
(287.375 6.00893e-011 0)
(279.622 2.64706e-011 0)
(269.507 9.76199e-012 0)
(246.103 1.47724e-011 0)
(172.323 2.41137e-011 0)
(53.2387 -8.20843e-012 0)
(7.84223 -3.46409e-012 0)
(1.17069 -1.63326e-012 0)
(0.180154 -1.5354e-012 0)
(0.028707 -2.39951e-012 0)
(0.00478868 2.07856e-012 0)
(0.00083337 8.40867e-013 0)
(0.000151077 2.58144e-012 0)
(2.82876e-005 2.97787e-013 0)
(5.42454e-006 -3.9358e-012 0)
(1.05643e-006 -2.04401e-012 0)
(2.06891e-007 5.53489e-013 0)
(4.07312e-008 -9.80137e-013 0)
(7.97027e-009 -5.30416e-013 0)
(1.56369e-009 4.44874e-012 0)
(3.08708e-010 -4.19101e-012 0)
(6.05949e-011 -1.96026e-012 0)
(7.74044e-012 5.0483e-012 0)
(-3.17479e-012 2.32078e-013 0)
(-1.18678e-011 -6.41325e-012 0)
(8.92098e-013 -2.3964e-012 0)
(4.47745e-012 -3.56423e-012 0)
(3.57707e-012 4.03227e-012 0)
(-2.6911e-012 -1.67699e-013 0)
(5.32241e-012 7.73262e-013 0)
(-3.13911e-012 -6.36385e-012 0)
(9.56511e-013 3.16022e-012 0)
(2.37214e-010 4.11398e-013 0)
(2.54509e-009 3.98436e-013 0)
(3.2206e-008 -5.85876e-012 0)
(2.89516e-007 3.30935e-012 0)
(3.0248e-006 -3.02393e-012 0)
(2.33296e-005 -1.71e-012 0)
(0.000197835 -3.10802e-012 0)
(0.00128756 7.61054e-013 0)
(0.00867121 1.97428e-012 0)
(0.0464243 3.65988e-012 0)
(0.23998 2.41104e-012 0)
(0.975416 7.01569e-013 0)
(3.45326 3.7609e-012 0)
(9.76448 -1.01479e-012 0)
(23.524 4.3086e-012 0)
(47.3259 4.28531e-012 0)
(80.1178 6.07418e-012 0)
(118.304 3.42425e-012 0)
(156.028 1.89618e-013 0)
(189.739 -2.10264e-012 0)
(219.242 -5.89823e-012 0)
(245.971 5.91698e-013 0)
(269.572 5.0358e-012 0)
(286.188 5.12766e-012 0)
(291.122 3.53537e-011 0)
(291.974 6.1208e-011 0)
(294.335 8.12095e-011 0)
(293.036 8.46923e-011 0)
(287.375 6.41198e-011 0)
(279.622 2.9068e-011 0)
(269.507 1.15895e-011 0)
(246.103 2.06962e-011 0)
(172.323 3.25103e-011 0)
(53.2387 -5.21207e-012 0)
(7.84223 -3.99364e-012 0)
(1.17069 -2.23635e-012 0)
(0.180154 -1.83872e-012 0)
(0.028707 -1.92525e-013 0)
(0.00478868 6.83994e-013 0)
(0.00083337 2.32128e-013 0)
(0.000151077 2.32481e-012 0)
(2.82876e-005 1.57353e-012 0)
(5.42454e-006 -5.52812e-012 0)
(1.05643e-006 -4.8867e-012 0)
(2.06892e-007 -1.58125e-012 0)
(4.07325e-008 3.59058e-012 0)
(7.97347e-009 3.42258e-012 0)
(1.5657e-009 1.60295e-012 0)
(3.07815e-010 -1.97151e-012 0)
(5.8552e-011 -1.41391e-012 0)
(7.74641e-012 5.00828e-012 0)
(-2.27293e-012 1.19807e-012 0)
(-1.16329e-011 3.17811e-014 0)
(1.007e-012 -7.86336e-012 0)
(4.04044e-012 1.52734e-012 0)
(3.01278e-012 -2.27055e-012 0)
(-2.77926e-012 2.997e-012 0)
(5.34171e-012 -1.31357e-012 0)
(-3.07582e-012 -6.80851e-012 0)
(9.34353e-013 4.9612e-012 0)
(2.37622e-010 -1.85981e-012 0)
(2.54503e-009 -4.16014e-012 0)
(3.2206e-008 -4.49989e-012 0)
(2.89517e-007 1.72619e-012 0)
(3.0248e-006 -6.35997e-012 0)
(2.33296e-005 -3.25771e-012 0)
(0.000197835 -3.06569e-012 0)
(0.00128756 1.4779e-012 0)
(0.00867121 -8.90129e-013 0)
(0.0464243 2.20031e-012 0)
(0.23998 2.96578e-012 0)
(0.975416 2.98443e-014 0)
(3.45326 4.54279e-012 0)
(9.76448 -2.79467e-012 0)
(23.524 4.57946e-012 0)
(47.3259 3.95739e-012 0)
(80.1178 5.23225e-012 0)
(118.304 4.90635e-012 0)
(156.028 -3.21723e-013 0)
(189.739 -2.44046e-012 0)
(219.242 -4.7814e-012 0)
(245.971 -1.5883e-012 0)
(269.572 5.07641e-012 0)
(286.188 5.17533e-012 0)
(291.122 3.51704e-011 0)
(291.974 6.31905e-011 0)
(294.335 8.52399e-011 0)
(293.036 8.65383e-011 0)
(287.375 6.03859e-011 0)
(279.622 2.45458e-011 0)
(269.507 -2.02929e-012 0)
(246.103 -8.28059e-012 0)
(172.323 1.09583e-011 0)
(53.2387 -3.92137e-012 0)
(7.84223 -2.1268e-012 0)
(1.17069 -2.31397e-012 0)
(0.180154 -1.19836e-012 0)
(0.028707 -2.71969e-012 0)
(0.00478868 -2.45882e-013 0)
(0.00083337 1.99572e-012 0)
(0.000151077 1.19812e-012 0)
(2.82876e-005 8.50916e-013 0)
(5.42454e-006 -3.95612e-012 0)
(1.05643e-006 -3.13154e-013 0)
(2.06892e-007 -2.09855e-012 0)
(4.07317e-008 6.07131e-013 0)
(7.97023e-009 -1.00213e-012 0)
(1.56317e-009 2.89994e-012 0)
(3.08264e-010 -2.12472e-012 0)
(6.13472e-011 -2.95211e-012 0)
(8.0498e-012 6.10033e-012 0)
(-3.75831e-012 -1.91521e-012 0)
(-1.19939e-011 -2.58888e-012 0)
(1.11985e-012 -6.09975e-012 0)
(4.59266e-012 -3.64962e-012 0)
(3.59368e-012 -1.44301e-012 0)
(-2.66508e-012 3.01096e-012 0)
(5.07004e-012 1.20637e-012 0)
(-2.95686e-012 -7.63064e-012 0)
(1.08572e-012 3.4363e-012 0)
(2.36956e-010 1.38484e-012 0)
(2.54501e-009 -4.43196e-012 0)
(3.22062e-008 -4.53257e-012 0)
(2.89516e-007 -2.11044e-012 0)
(3.0248e-006 -3.44041e-012 0)
(2.33296e-005 -5.29286e-012 0)
(0.000197835 -5.63793e-012 0)
(0.00128756 1.39612e-012 0)
(0.00867121 -2.66456e-012 0)
(0.0464243 2.42911e-012 0)
(0.23998 -8.08672e-013 0)
(0.975416 8.74963e-013 0)
(3.45326 4.57843e-012 0)
(9.76448 -1.57669e-012 0)
(23.524 2.51037e-012 0)
(47.3259 3.78937e-012 0)
(80.1178 6.51125e-012 0)
(118.304 5.67805e-012 0)
(156.028 -8.57352e-013 0)
(189.739 -2.77957e-012 0)
(219.242 -6.33721e-012 0)
(245.971 2.98519e-013 0)
(269.572 5.02955e-012 0)
(286.188 6.18522e-012 0)
(291.122 3.61931e-011 0)
(291.974 6.43148e-011 0)
(294.335 8.73273e-011 0)
(293.036 8.99688e-011 0)
(287.375 5.80377e-011 0)
(279.622 1.8374e-011 0)
(269.507 -2.10886e-011 0)
(246.103 -5.08819e-011 0)
(172.323 -4.28744e-011 0)
(53.2387 -3.3673e-012 0)
(7.84223 -5.53333e-012 0)
(1.17069 -3.04282e-012 0)
(0.180154 2.06959e-013 0)
(0.028707 -2.7646e-012 0)
(0.00478868 -2.26458e-012 0)
(0.00083337 2.90393e-013 0)
(0.000151077 1.91796e-012 0)
(2.82876e-005 1.08628e-012 0)
(5.42454e-006 -5.16997e-012 0)
(1.05643e-006 -2.36378e-012 0)
(2.06892e-007 -4.30056e-012 0)
(4.07326e-008 1.82043e-012 0)
(7.97356e-009 4.84528e-013 0)
(1.56549e-009 1.68299e-012 0)
(3.07223e-010 -5.64341e-013 0)
(5.9554e-011 4.38046e-013 0)
(7.83762e-012 2.10114e-012 0)
(-3.34095e-012 3.42311e-013 0)
(-1.16843e-011 2.12122e-012 0)
(1.06891e-012 -5.84316e-012 0)
(4.18056e-012 2.44421e-012 0)
(3.19558e-012 -2.98005e-012 0)
(-2.71305e-012 -4.91187e-013 0)
(5.06683e-012 -1.2603e-012 0)
(-3.01541e-012 -9.94039e-012 0)
(1.18303e-012 3.00105e-012 0)
(2.37386e-010 -3.2096e-013 0)
(2.54486e-009 -4.61952e-012 0)
(3.22061e-008 -2.59621e-012 0)
(2.89517e-007 -3.23895e-012 0)
(3.0248e-006 -4.77393e-012 0)
(2.33296e-005 -6.60593e-012 0)
(0.000197835 -6.14679e-012 0)
(0.00128756 9.17043e-014 0)
(0.00867121 -2.30806e-012 0)
(0.0464243 8.13893e-013 0)