/*--------------------------------*- C++ -*----------------------------------*\
| =========                 |                                                 |
| \\      /  F ield         | OpenFOAM: The Open Source CFD Toolbox           |
|  \\    /   O peration     | Version:  5.x                                   |
|   \\  /    A nd           | Web:      www.OpenFOAM.org                      |
|    \\/     M anipulation  |                                                 |
\*---------------------------------------------------------------------------*/
/*   Windows 32 and 64 bit porting by blueCAPE: http://www.bluecape.com.pt   *\
|  Based on Windows porting (2.0.x v4) by Symscape: http://www.symscape.com   |
\*---------------------------------------------------------------------------*/
FoamFile
{
    version     2.0;
    format      ascii;
    class       volScalarField;
    location    "0.009";
    object      mag(U);
}
// * * * * * * * * * * * * * * * * * * * * * * * * * * * * * * * * * * * * * //

dimensions      [0 1 -1 0 0 0 0];

internalField   nonuniform List<scalar> 
1000
(
6.84213e-012
6.44149e-012
6.35049e-012
5.99631e-012
6.14469e-012
5.65303e-012
6.0016e-012
6.14106e-012
7.66277e-012
1.00524e-011
1.81703e-011
3.58451e-011
7.71356e-011
1.67395e-010
3.64676e-010
7.92396e-010
1.7097e-009
3.66007e-009
7.76762e-009
1.63416e-008
3.40661e-008
7.03612e-008
1.43957e-007
2.91719e-007
5.854e-007
1.16312e-006
2.28772e-006
4.45357e-006
8.57944e-006
1.63519e-005
3.08279e-005
5.74767e-005
0.000105953
0.000193064
0.000347655
0.000618495
0.00108678
0.00188556
0.00322915
0.00545687
0.00909602
0.0149503
0.0242197
0.0386567
0.0607618
0.094014
0.143123
0.214281
0.31537
0.456073
0.647834
0.903597
1.2373
1.66312
2.19453
2.84324
3.61828
4.52518
5.56555
6.73686
8.03294
9.44507
10.9631
12.5764
14.2745
16.0474
17.8861
19.7825
21.7295
23.7209
25.7515
27.8167
29.9126
32.0358
34.1835
36.3532
38.5429
40.7508
42.9752
45.2147
47.4683
49.7348
52.0132
54.3029
56.6029
58.9127
61.2317
63.5592
65.895
68.2384
70.5892
72.9468
75.3111
77.6817
80.0583
82.4406
84.8284
87.2216
89.6199
92.023
94.4309
96.8434
99.2603
101.682
104.107
106.536
108.97
111.407
113.848
116.292
118.74
121.191
123.646
126.104
128.565
131.029
133.496
135.966
138.439
140.914
143.393
145.874
148.357
150.843
153.332
155.822
158.315
160.811
163.307
165.806
168.306
170.807
173.309
175.812
178.315
180.82
183.325
185.831
188.336
190.842
193.348
195.854
198.36
200.865
203.37
205.875
208.379
210.882
213.385
215.886
218.386
220.885
223.383
225.879
228.374
230.867
233.358
235.847
238.334
240.819
243.301
245.781
248.258
250.732
253.203
255.671
258.135
260.596
263.052
265.505
267.954
270.398
272.837
275.271
277.701
280.124
282.541
284.953
287.357
289.755
292.145
294.528
296.902
299.267
301.623
303.969
306.304
308.628
310.939
313.238
315.523
317.793
320.047
322.285
324.504
326.704
328.882
331.039
333.171
335.277
337.356
339.405
341.421
343.403
345.348
347.253
349.114
350.929
352.693
354.402
356.052
357.636
359.149
360.584
361.932
363.184
364.329
365.357
366.253
367.002
367.591
368.002
368.225
368.239
368.04
367.645
367.057
366.261
365.225
363.89
362.162
359.859
356.748
352.597
347.181
340.41
332.423
323.725
315.171
307.573
301.397
296.729
293.455
291.308
289.957
289.131
288.646
288.388
288.284
288.297
288.394
288.551
288.759
288.999
289.254
289.494
289.658
289.526
288.637
286.192
280.639
269.178
249.358
230.361
223.158
224.536
228.3
233.621
238.451
241.663
243.226
243.629
243.662
243.573
243.475
243.531
243.739
244.099
244.703
245.443
246.116
246.667
247.107
247.471
247.809
248.157
248.526
248.909
249.294
249.678
250.062
250.453
250.895
251.49
252.326
253.373
254.489
255.642
257.8
258.805
8.2907e-012
8.09923e-012
7.57283e-012
7.94308e-012
8.40028e-012
6.99755e-012
9.35084e-012
6.50242e-012
1.04064e-011
6.5453e-012
1.36457e-011
1.35142e-011
2.97781e-011
5.50091e-011
1.16597e-010
2.4301e-010
5.12847e-010
1.07358e-009
2.23477e-009
4.61386e-009
9.44042e-009
1.91382e-008
3.8426e-008
7.64059e-008
1.50399e-007
2.93043e-007
5.65017e-007
1.07783e-006
2.0337e-006
3.79454e-006
6.99917e-006
1.27591e-005
2.29798e-005
4.08761e-005
7.17847e-005
0.00012441
0.000212689
0.000358497
0.000595443
0.000973954
0.00156775
0.00248145
0.00385854
0.0058878
0.008805
0.0128844
0.0184125
0.0256329
0.0346534
0.0453046
0.0569633
0.0683952
0.0778514
0.0842794
0.0923653
0.121496
0.197155
0.336909
0.555312
0.867929
1.2909
1.83734
2.51586
3.33003
4.27776
5.35277
6.54614
7.84681
9.2433
10.7238
12.2771
13.8931
15.5629
17.2791
19.0353
20.8257
22.6459
24.4921
26.3612
28.2505
30.158
32.0816
34.02
35.9719
37.9361
39.9119
41.8982
43.8945
45.9001
47.9145
49.9371
51.9675
54.0052
56.0499
58.1012
60.1587
62.2222
64.2913
66.3657
68.4453
70.5296
72.6184
74.7116
76.8088
78.9098
81.0145
83.1226
85.234
87.3484
89.4658
91.5859
93.7085
95.8336
97.961
100.091
102.222
104.356
106.491
108.628
110.767
112.908
115.049
117.192
119.337
121.483
123.629
125.777
127.926
130.076
132.227
134.38
136.533
138.687
140.842
142.998
145.154
147.312
149.47
151.629
153.788
155.948
158.108
160.268
162.43
164.59
166.752
168.912
171.074
173.234
175.395
177.556
179.715
181.875
184.033
186.19
188.347
190.501
192.655
194.807
196.957
199.105
201.25
203.393
205.533
207.669
209.802
211.931
214.055
216.175
218.289
220.397
222.499
224.594
226.681
228.759
230.829
232.888
234.935
236.971
238.993
241.001
242.992
244.966
246.922
248.857
250.769
252.657
254.518
256.351
258.152
259.92
261.652
263.346
264.998
266.606
268.167
269.679
271.139
272.545
273.896
275.189
276.423
277.598
278.713
279.77
280.769
281.713
282.603
283.444
284.237
284.988
285.7
286.377
287.024
287.644
288.24
288.816
289.375
289.918
290.448
290.965
291.47
291.962
292.443
292.911
293.363
293.801
294.227
294.645
295.061
295.485
295.937
296.433
296.99
297.622
298.328
299.105
299.933
300.783
301.631
302.455
303.231
303.929
304.531
305.036
305.452
305.79
306.061
306.277
306.446
306.579
306.68
306.756
306.811
306.849
306.872
306.884
306.888
306.885
306.879
306.88
306.908
306.975
307.054
307.137
307.231
307.321
307.407
307.488
307.565
307.645
307.729
307.823
307.928
308.048
308.18
308.321
308.468
308.615
308.759
308.896
309.026
309.154
309.284
309.427
309.595
309.801
310.055
310.372
310.763
311.231
311.785
312.425
313.149
313.954
314.835
315.777
316.791
317.602
319.549
319.861
320.501
321.352
322.064
322.675
323.2
323.659
324.065
324.426
324.749
325.039
325.299
325.532
325.74
325.925
326.091
326.238
326.37
326.487
326.592
326.686
326.77
326.846
326.915
326.976
327.032
327.083
327.128
327.169
327.204
327.236
327.262
327.284
327.302
327.314
327.321
327.322
327.317
327.309
327.296
327.274
327.252
327.225
327.184
327.139
327.084
327.019
326.946
326.864
326.773
326.674
326.565
326.447
326.319
326.181
326.032
325.874
325.705
325.526
325.337
325.136
324.925
324.703
324.472
324.231
323.98
323.721
323.453
323.177
322.894
322.603
322.307
322.005
321.698
321.387
321.072
320.754
320.434
320.111
319.787
319.462
319.136
318.809
318.482
318.155
317.827
317.499
317.171
316.842
316.512
316.181
315.847
315.511
315.17
314.824
314.471
314.108
313.733
313.338
312.959
291.093
291.582
292.276
292.756
293.072
293.389
293.751
294.142
294.528
294.895
295.248
295.593
295.932
296.265
296.591
296.905
297.202
297.487
297.799
298.114
298.391
298.633
298.833
298.993
299.117
299.208
299.271
299.308
299.322
299.315
299.288
299.241
299.174
299.085
298.971
298.829
298.656
298.447
298.2
297.909
297.571
297.181
296.735
296.229
295.657
295.017
294.306
293.523
292.667
291.741
290.747
289.678
288.519
287.348
286.219
285.057
283.856
282.665
281.499
280.364
279.27
278.224
277.234
276.306
275.442
274.645
273.915
273.252
272.654
272.119
271.642
271.218
270.84
270.505
270.207
269.939
269.695
269.469
269.259
269.063
268.877
268.696
268.519
268.346
268.176
268.009
267.849
267.695
267.55
267.415
267.29
267.177
267.075
266.984
266.905
266.835
266.775
266.722
266.678
266.64
266.609
266.582
266.56
266.54
266.522
266.503
266.483
266.459
266.429
266.392
266.346
266.289
266.22
266.136
266.038
265.922
265.79
265.64
265.471
265.283
265.074
264.845
264.593
264.318
264.019
263.695
263.345
262.971
262.573
262.155
261.725
261.292
260.873
260.483
260.136
259.816
259.416
258.592
256.502
251.43
240.337
219.613
187.695
148.199
109.626
79.1871
58.0265
43.2442
32.6286
18.3001
311.23
310.479
310.061
309.731
309.4
309.069
308.752
308.456
308.184
307.938
307.714
307.506
307.309
307.116
306.923
306.724
306.516
306.297
306.065
305.818
305.554
305.278
304.995
304.702
304.398
304.083
303.755
303.416
303.066
302.708
302.344
301.975
301.604
301.234
300.866
300.503
300.146
299.796
299.455
299.122
298.8
298.488
298.187
297.897
297.621
297.357
297.108
296.875
296.659
296.46
296.281
296.121
295.981
295.863
295.767
295.694
295.642
295.611
295.603
295.62
295.658
295.715
295.791
295.887
296.003
296.138
296.29
296.458
296.639
296.831
297.051
297.291
297.53
297.771
298.02
298.274
298.532
298.793
299.047
299.295
299.538
299.771
299.992
300.199
300.39
300.563
300.717
300.851
300.966
301.06
301.135
301.193
301.231
301.251
301.255
301.247
301.225
301.193
301.149
301.097
301.036
300.968
300.893
300.813
300.729
300.641
300.55
300.456
300.36
300.263
300.164
300.064
299.962
299.859
299.754
299.647
299.539
299.429
299.318
299.207
299.095
298.984
298.872
298.762
298.652
298.543
298.435
298.329
298.224
298.122
298.021
297.924
297.83
297.741
297.656
297.578
297.504
297.43
297.351
297.259
297.15
297.018
296.853
296.603
296.365
296.449
297.174
297.409
296.233
281.061
)
;

boundaryField
{
    inlet
    {
        type            calculated;
        value           nonuniform List<scalar> 2(8.2907e-012 6.84213e-012);
    }
    outlet
    {
        type            calculated;
        value           nonuniform List<scalar> 2(281.061 18.3001);
    }
    bottom
    {
        type            symmetryPlane;
    }
    top
    {
        type            symmetryPlane;
    }
    obstacle
    {
        type            calculated;
        value           nonuniform List<scalar> 
102
(
258.805
291.093
319.861
320.501
321.352
322.064
322.675
323.2
323.659
324.065
324.426
324.749
325.039
325.299
325.532
325.74
325.925
326.091
326.238
326.37
326.487
326.592
326.686
326.77
326.846
326.915
326.976
327.032
327.083
327.128
327.169
327.204
327.236
327.262
327.284
327.302
327.314
327.321
327.322
327.317
327.309
327.296
327.274
327.252
327.225
327.184
327.139
327.084
327.019
326.946
326.864
326.773
326.674
326.565
326.447
326.319
326.181
326.032
325.874
325.705
325.526
325.337
325.136
324.925
324.703
324.472
324.231
323.98
323.721
323.453
323.177
322.894
322.603
322.307
322.005
321.698
321.387
321.072
320.754
320.434
320.111
319.787
319.462
319.136
318.809
318.482
318.155
317.827
317.499
317.171
316.842
316.512
316.181
315.847
315.511
315.17
314.824
314.471
314.108
313.733
313.338
312.959
)
;
    }
    defaultFaces
    {
        type            empty;
    }
}


// ************************************************************************* //
