/*--------------------------------*- C++ -*----------------------------------*\
| =========                 |                                                 |
| \\      /  F ield         | OpenFOAM: The Open Source CFD Toolbox           |
|  \\    /   O peration     | Version:  5.x                                   |
|   \\  /    A nd           | Web:      www.OpenFOAM.org                      |
|    \\/     M anipulation  |                                                 |
\*---------------------------------------------------------------------------*/
/*   Windows 32 and 64 bit porting by blueCAPE: http://www.bluecape.com.pt   *\
|  Based on Windows porting (2.0.x v4) by Symscape: http://www.symscape.com   |
\*---------------------------------------------------------------------------*/
FoamFile
{
    version     2.0;
    format      ascii;
    class       volScalarField;
    location    "0.009";
    object      p;
}
// * * * * * * * * * * * * * * * * * * * * * * * * * * * * * * * * * * * * * //

dimensions      [1 -1 -2 0 0 0 0];

internalField   nonuniform List<scalar> 
1000
(
100000
100000
100000
100000
100000
100000
100000
100000
100000
100000
100000
100000
100000
100000
100000
100000
100000
100000
100000
100000
100000
100000
100000
100000
100000
100000
100000
100000
100000
100000
100000
100000
100000
99999.9
99999.9
99999.8
99999.6
99999.3
99998.8
99998
99996.7
99994.5
99991.1
99985.8
99977.6
99965.3
99947.2
99920.8
99883.3
99831.1
99760
99665
99541
99382.8
99185.5
98944.8
98657.7
98322.4
97938.8
97508.1
97033.2
96518.1
95967
95384.4
94774.6
94141.6
93489.3
92820.7
92138.9
91446.1
90744.5
90035.9
89321.8
88603.5
87882.1
87158.5
86433.5
85707.7
84981.8
84256.2
83531.4
82807.7
82085.5
81365.1
80646.6
79930.3
79216.5
78505.1
77796.5
77090.7
76387.9
75688.1
74991.5
74298.1
73608
72921.2
72237.8
71557.9
70881.5
70208.6
69539.3
68873.6
68211.5
67553
66898.1
66246.9
65599.4
64955.6
64315.5
63679
63046.2
62417.2
61791.8
61170.1
60552.1
59937.8
59327.2
58720.2
58116.9
57517.3
56921.3
56328.9
55740.2
55155
54573.5
53995.5
53421.2
52850.4
52283.3
51719.9
51160.3
50604.4
50052.2
49503.9
48959.3
48418.6
47881.6
47348.5
46819.1
46293.7
45772
45254.2
44740.2
44230
43723.6
43221.1
42722.4
42227.6
41736.4
41249.2
40765.8
40286.2
39810.4
39338.5
38870.3
38406
37945.4
37488.7
37035.8
36586.6
36141.3
35699.9
35262.1
34828.2
34398.2
33971.9
33549.4
33130.7
32716
32304.9
31897.7
31494.4
31094.9
30699.3
30307.4
29919.5
29535.5
29155.4
28779.2
28406.9
28038.6
27674.3
27314
26957.8
26605.6
26257.6
25913.6
25574
25238.5
24907.4
24580.7
24258.3
23940.6
23627.4
23318.9
23015.1
22716.3
22422.4
22133.7
21850.2
21572
21299.5
21032.5
20771.5
20516.5
20267.8
20025.6
19790.2
19561.8
19340.8
19127.5
18922.3
18725.7
18538.3
18360.6
18193.4
18037.5
17893.9
17763.7
17647.9
17548
17465.2
17401
17355.7
17332.6
17329.2
17344.6
17379.4
17436.3
17520.4
17640.2
17809.5
18057.2
18410.5
18900.4
19558.2
20390
21382.3
22450
23495.3
24431
25223.6
25853.2
26334.8
26701.3
26986.7
27217.3
27410.4
27577.1
27723.8
27852.6
27969.1
28074.1
28169.6
28258.1
28343.7
28433.1
28549.5
28767.9
29215.6
30139.8
32044.6
35915.1
41991.5
45249
44947.9
44222
43028.3
41718.3
40870.1
40494.7
40455.7
40484.5
40545.2
40646.8
40676.9
40667.7
40618.4
40499.5
40332.7
40153.5
39994.7
39856.6
39729.7
39602.8
39467.6
39321.5
39167.4
39010.5
38854.7
38701.7
38554.8
38409.7
38244.2
38033.9
37782.3
37521.4
37271.1
36997.3
36452.5
100000
100000
100000
100000
100000
100000
100000
100000
100000
100000
100000
100000
100000
100000
100000
100000
100000
100000
100000
100000
100000
100000
100000
100000
100000
100000
100000
100000
100000
100000
100000
100000
100000
100000
100000
100000
100000
100000
100000
100000
100001
100001
100001
100002
100003
100005
100007
100009
100012
100016
100019
100022
100023
100020
100011
99990.1
99955.6
99900.1
99817.3
99700.1
99542.3
99338.8
99086.4
98784.4
98433.8
98037.5
97599.1
97123.5
96615.2
96079.1
95519.6
94940.7
94345.9
93738.2
93120.2
92494
91861.3
91223.7
90582.4
89938.3
89292.3
88645.2
87997.5
87349.6
86702.1
86055.2
85409.4
84764.8
84121.7
83480.3
82840.8
82203.4
81568.2
80935.3
80304.9
79677.1
79052.1
78429.9
77810.6
77194.3
76581.1
75971
75364.2
74760.8
74160.7
73564
72970.8
72381.2
71795.1
71212.7
70633.9
70058.9
69487.5
68920
68356.2
67796.2
67240
66687.6
66139.1
65594.5
65053.8
64516.9
63983.9
63454.8
62929.6
62408.2
61890.8
61377.2
60867.5
60361.6
59859.4
59361.1
58866.5
58375.7
57888.5
57405.1
56925.4
56449.4
55977.1
55508.4
55043.4
54582
54124.2
53670.1
53219.4
52772.6
52329.1
51889.5
51453.2
51020.7
50591.5
50165.8
49743.9
49325.3
48910.3
48498.9
48091
47686.7
47285.9
46888.6
46494.9
46104.8
45718.3
45335.5
44956.2
44580.6
44208.7
43840.6
43476.2
43115.6
42758.9
42406
42057.2
41712.5
41371.8
41035.4
40703.3
40375.6
40052.5
39734
39420.3
39111.7
38808.1
38509.9
38217.3
37930.3
37649.4
37374.7
37106.5
36845.1
36590.8
36343.8
36104.6
35873.3
35650.3
35436
35230.6
35034.4
34847.6
34670.5
34503.1
34345.5
34197.8
34059.9
33931.6
33812.6
33702.6
33601.2
33507.9
33422.1
33343.2
33270.6
33203.5
33141.3
33083.5
33029.4
32978.4
32930.2
32884.4
32840.6
32798.5
32758
32719
32681.4
32645.2
32610.5
32577.4
32545.8
32515
32484
32451.3
32414.5
32369
32311.5
32239
32149.4
32044
31923.3
31793.6
31657.9
31520.1
31382.3
31251.3
31131.4
31024.1
30929.2
30845.4
30771.2
30705.3
30646.4
30593.3
30545.2
30501.5
30461.5
30424.9
30391.1
30359.9
30330.7
30303
30276.5
30250.1
30216.1
30168
30101.1
30021.3
29939.6
29862
29790.9
29726.1
29666.9
29611
29556.4
29502
29447.1
29391.4
29334.8
29278
29221.3
29165.9
29112.3
29061
29011.9
28964.5
28918
28871
28822.1
28769.4
28710.9
28646.2
28572.8
28490.4
28397.9
28295.4
28183
28061.4
27931.4
27794.7
27654.5
27505.7
27422.6
27188.3
27134
27043.3
26956.6
26879.5
26811.9
26752.3
26699.1
26651.5
26608.6
26570
26535.2
26503.9
26475.6
26450.2
26427.2
26406.6
26387.9
26371
26355.7
26341.7
26329
26317.3
26306.5
26296.5
26287.3
26278.8
26270.9
26263.6
26256.8
26250.6
26245
26240
26235.5
26231.6
26228.4
26225.9
26224
26222.9
26222
26222
26223.2
26223.7
26225.8
26229.3
26233.5
26239
26245.4
26253.1
26261.7
26271.5
26282.4
26294.5
26307.7
26322.2
26337.9
26354.9
26373.2
26392.9
26413.7
26436.2
26459.6
26484.5
26510.7
26538.1
26566.8
26596.6
26627.5
26659.7
26692.3
26726.4
26760.7
26796.3
26832.3
26869
26906.3
26944
26982.1
27020.5
27059.2
27098.2
27137.3
27176.5
27215.9
27255.4
27294.9
27334.6
27374.4
27414.3
27454.4
27494.7
27535.3
27576.3
27617.9
27660.2
27703.5
27748
27794.1
27842.1
27893.8
34830
34784.2
34695
34626.1
34594.6
34562.5
34520.9
34470.4
34414.5
34355.9
34295.2
34233
34169.6
34106
34042
33978.1
33914.5
33850.5
33793.6
33729.9
33668.5
33606.5
33544.4
33482.7
33421.6
33361.2
33301.7
33243
33185.8
33129.2
33074.1
33020.2
32967.3
32915.4
32864.5
32814.4
32765.1
32716.4
32668.4
32620.9
32574.1
32527.7
32481.8
32436.4
32391.5
32347
32302.9
32259.2
32215.7
32172.8
32129.8
32086.9
32041.9
32001.4
31964.4
31918
31874.3
31831.1
31787.3
31742.9
31698
31652.8
31607.4
31561.8
31516.2
31470.7
31425.5
31380.7
31336.4
31292.9
31250
31207.7
31166.1
31125.2
31084.5
31044.2
31003.8
30963.2
30922.5
30881.5
30839.9
30797.8
30755.4
30712.7
30669.9
30627.3
30585
30543.2
30502.1
30461.9
30422.5
30384
30346.5
30309.8
30273.9
30238.7
30204.1
30170.1
30136.4
30103.1
30069.9
30036.9
30003.7
29970.3
29936.5
29902.1
29867
29831
29793.9
29755.5
29715.6
29674.2
29630.9
29585.5
29538
29488.1
29436
29381.4
29324.4
29264.9
29202.8
29138
29070.4
29000
28926.5
28849.9
28770.2
28687.4
28601.8
28513.7
28423.8
28332.9
28242.4
28153.3
28065.9
27976.7
27870.9
27707.9
27398.6
26770.4
25525.1
23469.8
20739.4
17875.8
15471.7
13770
12662
11928
11416.6
11017
28064.6
28186.5
28248.3
28286.8
28318.8
28352.4
28386.5
28420
28452.1
28482.1
28509.6
28534.7
28557.6
28578.5
28597.7
28615.4
28631.8
28646.8
28660.7
28673.4
28684.7
28695.5
28705.4
28714.4
28722.6
28730.3
28737.6
28744.9
28752.4
28760.2
28768.6
28777.5
28787.2
28797.5
28808.5
28820
28832
28844.4
28857.1
28870.1
28883.2
28896.5
28910.1
28923.7
28937.5
28951.4
28965.4
28979.4
28993.4
29007.2
29020.8
29034.2
29047.2
29060
29072.4
29084.3
29095.9
29107.1
29118
29128.7
29138.9
29148.8
29158.7
29168.5
29178.2
29187.9
29197.5
29207.1
29216.8
29226.2
29238
29247.9
29257.8
29268.5
29279.8
29291
29302.8
29315.2
29326.9
29339.5
29352.3
29365.2
29378.2
29391.3
29404.6
29417.9
29431.2
29444.5
29457.7
29470.8
29483.9
29496.8
29509.1
29521.3
29533.3
29544.9
29556
29566.8
29577.2
29587.1
29596.6
29605.6
29614.2
29622.4
29630.2
29637.6
29644.8
29651.6
29658.3
29664.9
29671.5
29678.2
29685.2
29692.6
29700.5
29709
29718
29727.7
29737.9
29748.6
29759.9
29771.7
29784
29796.8
29810.1
29824
29838.4
29853.5
29869.2
29885.6
29902.8
29920.8
29939.6
29959.4
29980.1
30001.7
30024
30046.5
30068.7
30090.5
30112.8
30136.4
30160.3
30171.6
30168
30121.4
29976.9
29729.6
29814.3
30156.3
)
;

boundaryField
{
    inlet
    {
        type            zeroGradient;
    }
    outlet
    {
        type            zeroGradient;
    }
    bottom
    {
        type            symmetryPlane;
    }
    top
    {
        type            symmetryPlane;
    }
    obstacle
    {
        type            zeroGradient;
    }
    defaultFaces
    {
        type            empty;
    }
}


// ************************************************************************* //
