/*--------------------------------*- C++ -*----------------------------------*\
| =========                 |                                                 |
| \\      /  F ield         | OpenFOAM: The Open Source CFD Toolbox           |
|  \\    /   O peration     | Version:  5.x                                   |
|   \\  /    A nd           | Web:      www.OpenFOAM.org                      |
|    \\/     M anipulation  |                                                 |
\*---------------------------------------------------------------------------*/
/*   Windows 32 and 64 bit porting by blueCAPE: http://www.bluecape.com.pt   *\
|  Based on Windows porting (2.0.x v4) by Symscape: http://www.symscape.com   |
\*---------------------------------------------------------------------------*/
FoamFile
{
    version     2.0;
    format      ascii;
    class       surfaceScalarField;
    location    "0.009";
    object      phi;
}
// * * * * * * * * * * * * * * * * * * * * * * * * * * * * * * * * * * * * * //

dimensions      [1 0 -1 0 0 0 0];

internalField   nonuniform List<scalar> 
1447
(
4.56168e-012
3.03695e-013
3.98614e-012
2.96874e-013
3.81561e-012
2.887e-013
3.36087e-012
2.78236e-013
3.48166e-012
2.84606e-013
3.16902e-012
2.64531e-013
4.49774e-012
2.68008e-013
6.19593e-012
2.58973e-013
9.99023e-012
2.55927e-013
1.78133e-011
2.47517e-013
3.54348e-011
2.28657e-013
7.50759e-011
2.40176e-013
1.6265e-010
2.40412e-013
3.53729e-010
3.17198e-013
7.68445e-010
4.71151e-013
1.66056e-009
8.408e-013
3.5611e-009
1.67354e-012
7.57368e-009
3.51078e-012
1.59686e-008
7.49371e-012
3.33675e-008
1.60655e-011
6.90857e-008
3.43183e-011
1.41706e-007
7.27995e-011
2.87904e-007
1.53003e-010
5.79302e-007
3.18485e-010
1.15421e-006
6.56154e-010
2.27673e-006
1.33769e-009
4.44538e-006
2.69796e-009
8.59002e-006
5.38226e-009
1.64242e-005
1.06185e-008
3.10663e-005
2.07133e-008
5.81192e-005
3.99426e-008
0.000107517
7.61264e-008
0.000196633
1.43367e-007
0.00035543
2.66734e-007
0.000634829
4.9013e-007
0.00112007
8.8927e-007
0.00195161
1.59266e-006
0.00335713
2.81477e-006
0.00569941
4.90747e-006
0.00954613
8.4375e-006
0.015769
1.43004e-005
0.0256797
2.38832e-005
0.0412109
3.92878e-005
0.0651451
6.36284e-005
0.101392
0.000101407
0.155303
0.000158962
0.233994
0.000244966
0.346633
0.000370926
0.504637
0.000551597
0.72168
0.000805211
1.01345
0.0011534
1.39709
0.00162072
1.89026
0.0022337
2.50995
0.00301959
3.27106
0.00400463
4.18505
0.00521079
5.25877
0.0066536
6.49376
0.00834666
7.88585
0.0102984
9.42527
0.0125108
11.0978
0.0149818
12.887
0.017706
14.7755
0.0206758
16.746
0.023882
18.7827
0.0273138
20.8708
0.0309585
22.9973
0.0348031
25.1509
0.0388338
27.3219
0.0430366
29.5021
0.0473977
31.6844
0.0519033
33.863
0.0565406
36.0329
0.0612977
38.19
0.0661637
40.3308
0.0711289
42.4525
0.0761842
44.5527
0.0813216
46.6292
0.0865343
48.6804
0.0918158
50.7049
0.0971608
52.7015
0.102564
54.6692
0.108022
56.6071
0.11353
58.5146
0.119085
60.391
0.124685
62.2359
0.130326
64.0489
0.136006
65.8297
0.141724
67.578
0.147476
69.2936
0.153263
70.9764
0.159082
72.6263
0.164932
74.2431
0.170812
75.8269
0.176721
77.3777
0.182657
78.8954
0.188621
80.3801
0.194611
81.8319
0.200626
83.2508
0.206667
84.6369
0.212732
85.9904
0.21882
87.3114
0.224933
88.5999
0.231068
89.8562
0.237226
91.0805
0.243407
92.2727
0.249611
93.4333
0.255837
94.5622
0.262085
95.6598
0.268356
96.7261
0.274651
97.7614
0.280968
98.7659
0.28731
99.7398
0.293676
100.683
0.300068
101.596
0.306488
102.48
0.312936
103.333
0.319415
104.157
0.325928
104.952
0.332476
105.717
0.339065
106.453
0.345697
107.161
0.35238
107.84
0.359118
108.491
0.36592
109.114
0.372795
109.71
0.379731
110.277
0.386629
110.817
0.393426
111.329
0.400089
111.816
0.406643
112.273
0.413045
112.709
0.419405
113.11
0.425545
113.497
0.4318
113.844
0.437641
114.178
0.443867
114.481
0.449404
114.753
0.455557
115.021
0.460953
115.234
0.46679
115.453
0.472329
115.631
0.477641
115.781
0.483358
115.929
0.488298
116.034
0.49397
116.118
0.498652
116.194
0.504356
116.236
0.508621
116.25
0.514306
116.263
0.518606
116.242
0.52354
116.189
0.52844
116.14
0.532638
116.056
0.537463
115.946
0.54185
115.831
0.545993
115.688
0.550496
115.528
0.554568
115.347
0.558519
115.144
0.562708
114.939
0.566519
114.697
0.570214
114.442
0.57405
114.179
0.577658
113.888
0.581073
113.589
0.584498
113.263
0.587909
112.927
0.591059
112.583
0.594086
112.207
0.597182
111.828
0.600088
111.426
0.602828
111.016
0.605472
110.593
0.608086
110.145
0.610572
109.695
0.612839
109.222
0.615052
108.745
0.617172
108.25
0.619177
107.74
0.620988
107.224
0.622679
106.689
0.624289
106.152
0.625756
105.595
0.627074
105.031
0.628197
104.455
0.629238
103.868
0.630112
103.276
0.630853
102.668
0.631383
102.057
0.631754
101.43
0.631986
100.799
0.632021
100.159
0.631901
99.5113
0.631518
98.8573
0.630993
98.1922
0.630226
97.5246
0.629287
96.8469
0.62809
96.1677
0.626645
95.4803
0.624973
94.7889
0.623021
94.0922
0.620854
93.3906
0.618356
92.6874
0.615595
91.9794
0.612497
91.2715
0.609103
90.5587
0.605392
89.8463
0.601325
89.1314
0.596912
88.4172
0.592084
87.7039
0.586905
86.9915
0.581287
86.2817
0.57528
85.5733
0.568785
84.8695
0.561817
84.1685
0.554326
83.4748
0.546274
82.7862
0.537648
82.1066
0.528346
81.4344
0.518366
80.7735
0.50755
80.1218
0.495928
79.4846
0.483314
78.8608
0.469717
78.2528
0.455005
77.6607
0.439208
77.0792
0.428773
76.5059
0.418907
75.9424
0.407847
75.3861
0.39573
74.8364
0.382362
74.2866
0.367571
73.7538
0.324571
73.2363
0.27001
72.7277
0.200973
72.2272
0.109243
71.6996
0.0309597
71.1447
-0.0648209
70.5472
-0.133213
69.9414
-0.21519
69.3576
-0.302476
68.8412
-0.406366
68.4134
-0.481507
68.0522
-0.517607
67.744
-0.541528
67.4757
-0.557262
67.2373
-0.567283
67.0201
-0.573096
66.8159
-0.575774
66.6259
-0.575933
66.437
-0.574285
66.2544
-0.571078
66.0744
-0.566678
65.8916
-0.56136
65.7073
-0.555196
65.5138
-0.548633
65.3062
-0.541612
65.0274
-0.535462
64.5933
-0.530046
63.8234
-0.519823
62.3805
-0.539082
59.574
-0.635491
54.0665
-0.836862
48.2796
-1.09384
47.5385
-1.22128
48.1134
-1.19405
49.7202
-1.11781
51.3371
-1.01934
52.5122
-0.931499
53.3524
-0.868119
53.711
-0.828471
53.8103
-0.807365
53.8513
-0.791884
53.897
-0.777909
53.8991
-0.764196
53.9388
-0.748149
53.974
-0.729246
54.0377
-0.707829
54.1882
-0.68256
54.3199
-0.654784
54.4195
-0.62743
54.4853
-0.60142
54.5187
-0.576766
54.5242
-0.553034
54.5049
-0.52934
54.4805
-0.505213
54.4669
-0.480739
54.4508
-0.456134
54.407
-0.431606
54.3344
-0.407321
54.2534
-0.383715
54.1864
-0.36118
54.148
-0.339622
54.1372
-0.317759
54.1409
-0.294193
54.128
-0.269221
54.0355
-0.244804
53.8804
-0.221198
53.4191
-0.184749
-0.15887
-1.34293e-011
-1.36993e-011
-1.37135e-011
-1.3884e-011
-1.44667e-011
-1.46372e-011
-1.50351e-011
-1.57314e-011
-1.67546e-011
-2.06342e-011
-2.99138e-011
-5.04343e-011
-9.83675e-011
-2.0033e-010
-4.20414e-010
-8.85038e-010
-1.86112e-009
-3.89188e-009
-8.07825e-009
-1.66241e-008
-3.38986e-008
-6.84745e-008
-1.36983e-007
-2.71328e-007
-5.32002e-007
-1.03236e-006
-1.98218e-006
-3.76485e-006
-7.07191e-006
-1.31338e-005
-2.41091e-005
-4.37297e-005
-7.83481e-005
-0.000138605
-0.00024202
-0.000416923
-0.000708243
-0.00118575
-0.00195535
-0.00317375
-0.00506632
-0.00794655
-0.0122335
-0.01846
-0.027259
-0.0393083
-0.0552051
-0.0752331
-0.0989734
-0.124713
-0.148603
-0.163539
-0.157742
-0.113155
-0.00513198
0.191156
0.511822
1.00768
1.72661
2.71828
4.02498
5.67712
7.68822
10.0568
12.7676
15.7952
19.1075
22.669
26.4437
30.3969
34.4971
38.7164
43.0307
47.4193
51.8648
56.3528
60.8713
65.4103
69.9617
74.5184
79.0749
83.6265
88.1692
92.6998
97.2153
101.713
106.192
110.65
115.084
119.494
123.879
128.237
132.567
136.868
141.14
145.382
149.593
153.772
157.919
162.033
166.114
170.161
174.174
178.152
182.095
186.003
189.876
193.713
197.513
201.278
205.006
208.698
212.353
215.971
219.552
223.097
226.605
230.076
233.511
236.908
240.269
243.594
246.882
250.133
253.349
256.528
259.671
262.779
265.851
268.888
271.889
274.856
277.787
280.684
283.546
286.374
289.167
291.928
294.651
297.347
299.998
302.634
305.209
307.79
310.289
312.805
315.255
317.668
320.105
322.408
324.798
327.067
329.32
331.606
333.762
335.944
338.123
340.191
342.278
344.364
346.35
348.329
350.325
352.241
354.111
356.005
357.858
359.638
361.413
363.189
364.907
366.574
368.238
369.892
371.491
373.043
374.591
376.124
377.611
379.051
380.474
381.889
383.267
384.597
385.899
387.189
388.459
389.685
390.872
392.036
393.188
394.314
395.399
396.449
397.478
398.494
399.486
400.442
401.368
402.271
403.165
404.042
404.893
405.716
406.519
407.314
408.107
408.883
409.637
410.375
411.108
411.842
412.573
413.289
413.993
414.688
415.38
416.075
416.767
417.443
418.105
418.757
419.403
420.051
420.686
421.302
421.899
422.491
423.09
423.688
424.283
424.877
425.446
426.002
426.545
427.049
427.514
427.912
428.263
428.562
428.822
429.029
429.177
429.293
429.387
429.472
429.563
429.664
429.774
429.886
429.992
430.091
430.184
430.273
430.368
430.474
430.592
430.721
430.854
430.984
431.12
431.234
431.291
431.26
431.17
431.095
431.062
431.063
431.103
431.172
431.259
431.361
431.472
431.595
431.726
431.859
432.004
432.159
432.313
432.474
432.644
432.825
433.01
433.222
433.445
433.691
433.92
434.152
434.414
434.686
435.003
435.289
435.638
435.897
436.159
436.449
436.642
436.793
436.929
437.123
437.03
436.937
436.843
436.75
436.657
436.565
436.475
436.386
436.299
436.213
436.13
436.049
435.97
435.894
435.819
435.747
435.676
435.607
435.54
435.474
435.41
435.346
435.284
435.223
435.162
435.102
435.043
434.985
434.927
434.869
434.812
434.756
434.7
434.645
434.59
434.536
434.482
434.43
434.377
434.327
434.275
434.225
434.176
434.126
434.078
434.03
433.982
433.935
433.888
433.841
433.794
433.747
433.7
433.653
433.604
433.555
433.504
433.451
433.398
433.341
433.285
433.225
433.162
433.097
433.027
432.954
432.878
432.797
432.717
432.627
432.537
432.438
432.334
432.224
432.106
431.983
431.851
431.712
431.563
431.405
431.235
431.055
430.862
430.655
430.434
430.196
429.943
429.67
429.379
429.065
428.731
428.371
427.988
427.576
427.138
426.669
426.169
425.636
425.068
424.464
32.282
-1.00704
32.863
-0.871072
33.4129
-0.828798
33.9965
-0.811129
34.6226
-0.804216
35.2534
-0.800461
35.875
-0.79599
36.4819
-0.790833
37.073
-0.785327
37.6505
-0.779816
38.218
-0.774609
38.7805
-0.769931
39.3429
-0.765904
39.9092
-0.762543
40.4779
-0.759809
41.0513
-0.757603
41.6307
-0.755857
42.2443
-0.754599
42.9146
-0.753948
43.5995
-0.754024
44.2886
-0.75455
44.9629
-0.75526
45.6144
-0.755723
46.2411
-0.755983
46.8432
-0.756048
47.4223
-0.755891
47.9813
-0.755501
48.5231
-0.754888
49.0506
-0.754046
49.5643
-0.752968
50.067
-0.751616
50.5607
-0.749989
51.0461
-0.748069
51.5233
-0.745827
51.9922
-0.743233
52.4549
-0.740278
52.9128
-0.73698
53.3659
-0.733337
53.8126
-0.729323
54.2508
-0.724908
54.6777
-0.720042
55.0905
-0.714667
55.487
-0.708723
55.8666
-0.702157
56.2315
-0.694924
56.5875
-0.68702
56.9422
-0.678486
57.3027
-0.669357
57.674
-0.659663
58.0597
-0.649438
58.453
-0.638731
58.8467
-0.627523
59.2618
-0.615935
59.7897
-0.604237
60.3938
-0.593112
61.0145
-0.582359
61.6424
-0.57166
62.2687
-0.561178
62.8852
-0.551074
63.482
-0.541398
64.0506
-0.532289
64.5874
-0.523985
65.092
-0.516559
65.5665
-0.510064
66.0142
-0.504643
66.4392
-0.500387
66.8454
-0.497322
67.2364
-0.495426
67.6156
-0.494671
67.9863
-0.495444
68.3494
-0.496799
68.7059
-0.498679
69.0574
-0.501911
69.4056
-0.505756
69.7516
-0.509984
70.0973
-0.514689
70.4439
-0.519707
70.7942
-0.524734
71.1517
-0.530043
71.5174
-0.535465
71.8907
-0.540789
72.2702
-0.546062
72.6539
-0.551212
73.0401
-0.556176
73.4271
-0.560909
73.8146
-0.565378
74.2028
-0.569572
74.5921
-0.573468
74.9836
-0.577094
75.3783
-0.580498
75.7763
-0.583605
76.178
-0.586387
76.5841
-0.589042
76.9954
-0.591607
77.4115
-0.593989
77.832
-0.59624
78.2566
-0.598427
78.6844
-0.600576
79.1144
-0.602712
79.5456
-0.604865
79.9769
-0.607061
80.408
-0.60934
80.8393
-0.611741
81.2703
-0.614302
81.7001
-0.617058
82.1278
-0.620039
82.552
-0.623236
82.9715
-0.626665
83.3853
-0.630308
83.792
-0.634063
84.1911
-0.637841
84.582
-0.641931
84.9633
-0.646877
85.3335
-0.651786
85.6922
-0.65668
86.0393
-0.661573
86.3745
-0.666479
86.6973
-0.671403
87.0075
-0.676353
87.304
-0.681336
87.5854
-0.686345
87.8504
-0.691375
88.0985
-0.696426
88.3292
-0.701498
88.5427
-0.706595
88.7389
-0.71172
88.9168
-0.716869
89.0761
-0.722028
89.2171
-0.72719
89.3415
-0.732335
89.4532
-0.737453
89.5566
-0.742529
89.6561
-0.747556
89.7541
-0.752555
89.8416
-0.757654
89.8726
-0.763179
89.7112
-0.76984
89.0148
-0.778882
87.09
-0.791886
82.5961
-0.810179
74.0709
-0.832886
61.0994
-0.853329
45.6747
-0.861823
31.3715
-0.85204
20.6974
-0.826137
13.832
-0.790194
9.60899
-0.748137
6.83895
-0.703023
4.76814
-0.662491
-0.59095
419.425
412.937
404.882
395.27
384.429
372.85
360.991
349.235
337.893
327.202
317.325
308.345
300.28
293.11
286.792
281.27
276.475
272.331
268.754
265.66
262.985
260.684
258.71
257.011
255.54
254.255
253.12
252.109
251.198
250.368
249.605
248.894
248.224
247.587
246.974
246.38
245.802
245.238
244.683
244.14
243.608
243.089
242.583
242.094
241.619
241.155
240.703
240.267
239.848
239.443
239.052
238.67
238.298
237.935
237.581
237.232
236.877
236.511
236.151
235.818
235.507
235.209
234.921
234.642
234.372
234.111
233.858
233.614
233.384
233.213
233.142
233.092
233.028
232.934
232.8
232.613
232.387
232.095
231.737
231.334
230.9
230.452
230.005
229.569
229.147
228.739
228.341
227.951
227.56
227.168
226.77
226.359
225.928
225.479
225.017
224.543
224.058
223.566
223.068
222.563
222.054
221.537
221.013
220.481
219.943
219.401
218.857
218.314
217.774
217.234
216.693
216.15
215.604
215.057
214.507
213.956
213.408
212.867
212.334
211.809
211.286
210.762
210.237
209.71
209.181
208.653
208.129
207.611
207.103
206.606
206.119
205.642
205.172
204.705
204.237
203.768
203.293
202.808
202.308
201.791
201.259
200.707
200.114
199.457
198.829
198.327
197.934
196.741
193.008
)
;

boundaryField
{
    inlet
    {
        type            calculated;
        value           nonuniform List<scalar> 2(1.4117e-011 -4.91868e-012);
    }
    outlet
    {
        type            calculated;
        value           nonuniform List<scalar> 2(187.63 2.91787);
    }
    bottom
    {
        type            symmetryPlane;
        value           uniform 0;
    }
    top
    {
        type            symmetryPlane;
        value           uniform 0;
    }
    obstacle
    {
        type            calculated;
        value           nonuniform List<scalar> 
102
(
51.7586
-31.5625
0.123841
0.123748
0.123527
0.123325
0.123159
0.123025
0.122918
0.122834
0.122768
0.122718
0.122682
0.122659
0.122647
0.122647
0.122656
0.122674
0.122701
0.122734
0.122775
0.12282
0.122872
0.122927
0.122988
0.123051
0.123119
0.123189
0.123263
0.123339
0.123419
0.1235
0.123585
0.123672
0.123763
0.123856
0.123952
0.124051
0.124154
0.124259
0.12437
0.124478
0.124599
0.124715
0.124834
0.124964
0.125093
0.125229
0.125372
0.125515
0.125669
0.125821
0.125985
0.126146
0.126322
0.126492
0.126679
0.12686
0.127058
0.127248
0.127459
0.127658
0.127882
0.12809
0.128328
0.128545
0.128793
0.129019
0.129277
0.129512
0.12978
0.130021
0.130301
0.130546
0.130834
0.131082
0.131377
0.131627
0.131926
0.132178
0.13248
0.132732
0.133035
0.133285
0.133586
0.133835
0.134132
0.134377
0.13467
0.13491
0.135195
0.135429
0.135706
0.135934
0.136202
0.136422
0.136681
0.136895
0.137147
0.137356
0.137603
0.137822
)
;
    }
    defaultFaces
    {
        type            empty;
        value           nonuniform 0();
    }
}


// ************************************************************************* //
