/*--------------------------------*- C++ -*----------------------------------*\
| =========                 |                                                 |
| \\      /  F ield         | OpenFOAM: The Open Source CFD Toolbox           |
|  \\    /   O peration     | Version:  5.x                                   |
|   \\  /    A nd           | Web:      www.OpenFOAM.org                      |
|    \\/     M anipulation  |                                                 |
\*---------------------------------------------------------------------------*/
/*   Windows 32 and 64 bit porting by blueCAPE: http://www.bluecape.com.pt   *\
|  Based on Windows porting (2.0.x v4) by Symscape: http://www.symscape.com   |
\*---------------------------------------------------------------------------*/
FoamFile
{
    version     2.0;
    format      ascii;
    class       volScalarField;
    location    "0.009";
    object      T;
}
// * * * * * * * * * * * * * * * * * * * * * * * * * * * * * * * * * * * * * //

dimensions      [0 0 0 1 0 0 0];

internalField   nonuniform List<scalar> 
1000
(
348.432
348.432
348.432
348.432
348.432
348.432
348.432
348.432
348.432
348.432
348.432
348.432
348.432
348.432
348.432
348.432
348.432
348.432
348.432
348.432
348.432
348.432
348.432
348.432
348.432
348.432
348.432
348.432
348.432
348.432
348.432
348.432
348.432
348.432
348.432
348.432
348.432
348.431
348.431
348.43
348.429
348.427
348.423
348.418
348.41
348.397
348.379
348.353
348.316
348.263
348.192
348.097
347.973
347.815
347.617
347.376
347.087
346.749
346.362
345.925
345.442
344.917
344.353
343.753
343.124
342.467
341.787
341.086
340.368
339.635
338.888
338.13
337.362
336.584
335.799
335.007
334.209
333.405
332.597
331.784
330.967
330.146
329.322
328.494
327.664
326.832
325.997
325.159
324.32
323.479
322.635
321.791
320.944
320.096
319.247
318.396
317.544
316.691
315.837
314.981
314.125
313.267
312.409
311.549
310.689
309.827
308.965
308.102
307.238
306.374
305.508
304.642
303.775
302.907
302.038
301.169
300.299
299.428
298.556
297.684
296.811
295.938
295.063
294.188
293.312
292.436
291.558
290.681
289.8
288.926
288.035
287.178
286.257
285.445
284.461
283.721
282.671
281.965
280.941
280.136
279.263
278.308
277.517
276.586
275.696
274.857
273.957
273.052
272.214
271.334
270.401
269.584
268.699
267.773
266.951
266.059
265.169
264.318
263.414
262.58
261.69
260.788
259.981
259.065
258.212
257.351
256.458
255.65
254.729
253.895
253.041
252.16
251.348
250.437
249.627
248.765
247.909
247.091
246.199
245.41
244.538
243.725
242.891
242.04
241.254
240.393
239.621
238.772
237.984
237.178
236.373
235.608
234.791
234.046
233.242
232.506
231.737
230.999
230.265
229.526
228.827
228.106
227.435
226.744
226.092
225.44
224.807
224.205
223.601
223.047
222.483
221.976
221.465
221.012
220.569
220.179
219.82
219.502
219.242
219.018
218.875
218.765
218.763
218.785
218.912
219.11
219.362
219.694
220.102
220.607
221.254
222.088
223.226
224.747
226.742
229.248
232.205
235.466
238.733
241.738
244.329
246.464
248.142
249.442
250.442
251.254
251.923
252.504
253.014
253.482
253.89
254.273
254.626
254.94
255.264
255.538
255.876
256.224
256.928
258.299
261.068
266.271
275.537
286.889
291.994
290.578
288.794
286.315
283.491
281.532
280.789
280.328
280.19
280.125
280.066
279.89
279.711
279.481
279.09
278.639
278.209
277.843
277.54
277.241
277.023
276.848
276.596
276.236
275.92
275.731
275.593
275.359
274.925
274.362
273.804
273.314
272.942
273.092
273.524
284.046
348.432
348.432
348.432
348.432
348.432
348.432
348.432
348.432
348.432
348.432
348.432
348.432
348.432
348.432
348.432
348.432
348.432
348.432
348.432
348.432
348.432
348.432
348.432
348.432
348.432
348.432
348.432
348.432
348.432
348.432
348.432
348.432
348.432
348.432
348.432
348.432
348.432
348.432
348.432
348.432
348.433
348.433
348.433
348.434
348.435
348.437
348.439
348.441
348.444
348.448
348.451
348.454
348.455
348.452
348.442
348.422
348.388
348.332
348.25
348.133
347.975
347.771
347.518
347.214
346.861
346.461
346.016
345.533
345.014
344.465
343.89
343.292
342.675
342.042
341.394
340.735
340.066
339.389
338.703
338.012
337.314
336.612
335.905
335.195
334.48
333.763
333.043
332.32
331.594
330.867
330.137
329.406
328.673
327.938
327.202
326.465
325.727
324.987
324.247
323.506
322.764
322.022
321.278
320.535
319.791
319.047
318.303
317.558
316.814
316.069
315.325
314.58
313.836
313.092
312.348
311.605
310.862
310.119
309.377
308.635
307.894
307.153
306.413
305.673
304.934
304.196
303.458
302.721
301.985
301.249
300.514
299.78
299.046
298.314
297.58
296.851
296.116
295.392
294.653
293.939
293.189
292.496
291.714
291.075
290.221
289.675
288.731
288.248
287.312
286.734
285.979
285.191
284.598
283.782
283.08
282.435
281.639
280.949
280.289
279.519
278.814
278.159
277.42
276.691
276.036
275.335
274.599
273.92
273.255
272.542
271.836
271.171
270.503
269.805
269.115
268.462
267.805
267.125
266.455
265.81
265.174
264.523
263.871
263.244
262.632
262.019
261.4
260.793
260.213
259.643
259.076
258.509
257.964
257.442
256.935
256.437
255.944
255.477
255.032
254.61
254.2
253.8
253.422
253.068
252.739
252.425
252.122
251.828
251.561
251.309
251.076
250.843
250.621
250.401
250.207
250.007
249.827
249.634
249.453
249.264
249.098
248.925
248.766
248.596
248.428
248.267
248.116
247.976
247.829
247.678
247.525
247.365
247.196
247.007
246.781
246.519
246.228
245.918
245.6
245.28
244.958
244.636
244.333
244.06
243.822
243.616
243.431
243.26
243.1
242.95
242.817
242.701
242.601
242.515
242.44
242.367
242.299
242.23
242.167
242.11
242.063
241.997
241.919
241.826
241.73
241.635
241.538
241.46
241.384
241.317
241.261
241.203
241.146
241.088
241.026
240.964
240.906
240.838
240.779
240.727
240.678
240.636
240.594
240.563
240.503
240.466
240.378
240.353
240.231
240.171
239.985
239.852
239.651
239.403
239.255
238.96
238.742
238.51
238.373
237.616
237.7
237.589
237.404
237.215
237.043
236.89
236.753
236.633
236.525
236.429
236.343
236.267
236.199
236.138
236.084
236.037
235.994
235.957
235.922
235.893
235.865
235.842
235.819
235.801
235.782
235.767
235.751
235.739
235.727
235.717
235.707
235.699
235.692
235.687
235.682
235.68
235.678
235.679
235.679
235.688
235.68
235.697
235.702
235.704
235.722
235.735
235.749
235.773
235.79
235.821
235.843
235.882
235.908
235.956
235.986
236.043
236.08
236.147
236.193
236.27
236.321
236.41
236.464
236.569
236.63
236.747
236.818
236.945
237.024
237.16
237.245
237.395
237.483
237.65
237.742
237.924
238.023
238.216
238.323
238.528
238.646
238.864
238.995
239.225
239.371
239.617
239.782
240.044
240.231
240.514
240.725
241.032
241.273
241.608
241.884
242.253
242.567
242.976
243.337
243.785
442.078
442.221
443.056
444.073
444.751
445.027
445.197
445.364
445.56
445.791
446.043
446.287
446.486
446.609
446.643
446.606
446.482
446.182
445.461
444.266
442.985
441.713
440.579
439.631
438.874
438.309
437.919
437.68
437.569
437.57
437.677
437.861
438.105
438.403
438.751
439.136
439.53
439.921
440.314
440.72
441.157
441.646
442.202
442.836
443.539
444.274
444.98
445.591
446.055
446.338
446.433
446.4
446.213
445.569
444.072
442.084
440
437.862
435.715
433.623
431.656
429.858
428.242
426.803
425.526
424.392
423.383
422.482
421.675
420.95
420.297
419.713
419.194
418.731
418.312
417.924
417.555
417.189
416.806
416.388
415.931
415.441
414.928
414.405
413.885
413.38
412.891
412.424
411.974
411.541
411.122
410.715
410.319
409.927
409.536
409.144
408.752
408.359
407.968
407.581
407.202
406.829
406.461
406.088
405.715
405.338
404.96
404.582
404.202
403.821
403.44
403.054
402.662
402.266
401.865
401.459
401.043
400.618
400.182
399.735
399.281
398.823
398.361
397.893
397.416
396.923
396.416
395.898
395.371
394.84
394.304
393.766
393.231
392.71
392.2
391.685
391.093
390.234
388.706
385.697
379.71
369.715
355.857
340.05
325.235
313.461
304.884
298.55
293.668
289.416
245.388
248.459
252.423
257.461
263.661
270.92
279.007
287.692
296.741
305.911
314.963
323.694
331.945
339.609
346.61
352.9
358.459
363.298
367.459
371.003
373.998
376.498
378.544
380.186
381.492
382.512
383.307
383.914
384.376
384.722
384.98
385.173
385.321
385.439
385.541
385.636
385.729
385.822
385.919
386.02
386.122
386.221
386.318
386.408
386.487
386.561
386.634
386.702
386.757
386.8
386.835
386.866
386.896
386.925
386.951
386.973
387.006
387.069
387.158
387.225
387.249
387.251
387.242
387.227
387.203
387.167
387.122
387.067
386.997
386.878
386.648
386.276
385.901
385.571
385.306
385.117
385.013
384.992
385.077
385.262
385.508
385.787
386.07
386.335
386.571
386.771
386.941
387.083
387.206
387.318
387.426
387.534
387.651
387.786
387.937
388.094
388.255
388.417
388.575
388.729
388.877
389.021
389.164
389.309
389.455
389.599
389.737
389.868
389.988
390.099
390.205
390.312
390.422
390.536
390.658
390.785
390.914
391.037
391.149
391.25
391.345
391.443
391.549
391.664
391.789
391.921
392.058
392.192
392.32
392.438
392.545
392.644
392.74
392.843
392.958
393.088
393.234
393.388
393.544
393.695
393.844
394.002
394.177
394.315
394.403
394.379
393.966
393.543
393.466
392.602
)
;

boundaryField
{
    inlet
    {
        type            zeroGradient;
    }
    outlet
    {
        type            zeroGradient;
    }
    bottom
    {
        type            symmetryPlane;
    }
    top
    {
        type            symmetryPlane;
    }
    obstacle
    {
        type            zeroGradient;
    }
    defaultFaces
    {
        type            empty;
    }
}


// ************************************************************************* //
