/*--------------------------------*- C++ -*----------------------------------*\
| =========                 |                                                 |
| \\      /  F ield         | OpenFOAM: The Open Source CFD Toolbox           |
|  \\    /   O peration     | Version:  5.x                                   |
|   \\  /    A nd           | Web:      www.OpenFOAM.org                      |
|    \\/     M anipulation  |                                                 |
\*---------------------------------------------------------------------------*/
/*   Windows 32 and 64 bit porting by blueCAPE: http://www.bluecape.com.pt   *\
|  Based on Windows porting (2.0.x v4) by Symscape: http://www.symscape.com   |
\*---------------------------------------------------------------------------*/
FoamFile
{
    version     2.0;
    format      ascii;
    class       volVectorField;
    location    "0.009";
    object      U;
}
// * * * * * * * * * * * * * * * * * * * * * * * * * * * * * * * * * * * * * //

dimensions      [0 1 -1 0 0 0 0];

internalField   nonuniform List<vector> 
1000
(
(3.29501e-012 5.99647e-012 0)
(2.57279e-012 5.90538e-012 0)
(2.7646e-012 5.71714e-012 0)
(2.27315e-012 5.54874e-012 -2.97086e-018)
(2.33181e-012 5.68505e-012 2.97764e-018)
(2.06991e-012 5.26044e-012 0)
(2.62938e-012 5.39496e-012 0)
(3.38575e-012 5.12341e-012 5.99635e-018)
(5.62552e-012 5.20303e-012 -6.01017e-018)
(8.7148e-012 5.01038e-012 6.02405e-018)
(1.75095e-011 4.85585e-012 -6.03799e-018)
(3.55069e-011 4.91255e-012 0)
(7.70104e-011 4.39298e-012 0)
(1.67336e-010 4.45142e-012 0)
(3.64652e-010 4.19342e-012 0)
(7.92384e-010 4.327e-012 -1.22174e-017)
(1.70969e-009 5.93354e-012 1.22461e-017)
(3.66005e-009 1.14821e-011 0)
(7.76757e-009 2.72449e-011 0)
(1.63414e-008 6.91138e-011 0)
(3.40657e-008 1.74155e-010 -4.82896e-020)
(7.03599e-008 4.27366e-010 1.23915e-017)
(1.43954e-007 1.01602e-009 -2.4842e-017)
(2.9171e-007 2.35083e-009 1.24507e-017)
(5.85376e-007 5.30401e-009 1.24804e-017)
(1.16306e-006 1.17026e-008 -1.25104e-017)
(2.28758e-006 2.52976e-008 2.50809e-017)
(4.45325e-006 5.36608e-008 -2.86803e-025)
(8.57871e-006 1.11816e-007 -2.52021e-017)
(1.63503e-005 2.29076e-007 2.52631e-017)
(3.08244e-005 4.61687e-007 -2.53244e-017)
(5.74694e-005 9.15792e-007 2.5386e-017)
(0.000105938 1.78837e-006 -2.54479e-017)
(0.000193033 3.43885e-006 0)
(0.000347594 6.51188e-006 -2.55726e-017)
(0.000618376 1.21435e-005 2.56355e-017)
(0.00108656 2.23002e-005 0)
(0.00188513 4.0323e-005 0)
(0.00322835 7.17803e-005 0)
(0.00545542 0.000125769 -2.58896e-017)
(0.00909344 0.000216841 2.59542e-017)
(0.0149458 0.000367767 5.08184e-020)
(0.0242119 0.000613353 5.09454e-020)
(0.0386436 0.00100549 0)
(0.0607403 0.0016195 0)
(0.0939791 0.00256158 5.13298e-020)
(0.143068 0.0039768 -5.1459e-020)
(0.214196 0.00605658 5.15886e-020)
(0.31524 0.0090439 5.17185e-020)
(0.45588 0.0132341 -2.65724e-017)
(0.647556 0.018969 2.66513e-017)
(0.903205 0.0266222 5.21078e-020)
(1.23676 0.0365752 -5.22364e-020)
(1.6624 0.0491872 5.23635e-020)
(2.19357 0.0647613 5.24886e-020)
(2.84201 0.0835087 -5.26108e-020)
(3.61674 0.105494 -2.67829e-017)
(4.5233 0.130667 2.70129e-017)
(5.56328 0.158899 -5.29504e-020)
(6.73418 0.189966 5.30507e-020)
(8.02983 0.223628 5.31426e-020)
(9.4415 0.259691 -5.32255e-020)
(10.9591 0.298053 5.38998e-017)
(12.5718 0.338714 -1.07983e-016)
(14.2694 0.381766 5.41477e-017)
(16.0417 0.427352 -5.37864e-017)
(17.8797 0.475659 1.08093e-016)
(19.7754 0.526883 -5.42607e-017)
(21.7217 0.581215 5.35489e-020)
(23.7123 0.638828 5.35655e-020)
(25.742 0.699867 -5.38076e-017)
(27.8062 0.764447 5.42094e-017)
(29.901 0.83266 5.35884e-020)
(32.023 0.904571 -5.35891e-020)
(34.1694 0.980227 5.35871e-020)
(36.3378 1.05966 5.3583e-020)
(38.526 1.14289 -5.35769e-020)
(40.7322 1.22993 5.35692e-020)
(42.9549 1.32078 -5.34662e-017)
(45.1926 1.41544 5.38946e-017)
(47.4442 1.51391 5.35384e-020)
(49.7085 1.61617 -5.33624e-017)
(51.9847 1.72222 5.37977e-017)
(54.2719 1.83207 0)
(56.5694 1.94568 0)
(58.8766 2.06307 5.3323e-017)
(61.1927 2.18423 -5.37129e-017)
(63.5173 2.30914 0)
(65.8499 2.43781 0)
(68.19 2.57023 0)
(70.5373 2.7064 5.33884e-020)
(72.8913 2.84631 -5.29847e-017)
(75.2517 2.98995 5.34919e-017)
(77.6183 3.13733 5.29586e-017)
(79.9907 3.28844 -5.34157e-017)
(82.3686 3.44327 0)
(84.7519 3.60182 5.28909e-017)
(87.1403 3.76409 -5.32464e-017)
(89.5336 3.93006 -5.2756e-017)
(91.9316 4.09974 1.05936e-016)
(94.3342 4.27311 -5.31818e-017)
(96.7411 4.45017 0)
(99.1522 4.63089 5.31713e-020)
(101.567 4.81529 5.31529e-020)
(103.987 5.00333 5.25072e-017)
(106.41 5.19501 -5.16784e-019)
(108.836 5.3903 -5.29417e-017)
(111.266 5.58921 -5.2381e-017)
(113.7 5.7917 5.29138e-017)
(116.137 5.99775 5.30441e-020)
(118.577 6.20735 0)
(121.021 6.42047 0)
(123.468 6.63709 0)
(125.917 6.85719 0)
(128.37 7.08073 0)
(130.825 7.30769 5.2941e-020)
(133.283 7.53804 -5.19433e-017)
(135.744 7.77175 5.24911e-017)
(138.207 8.00878 5.19625e-017)
(140.673 8.24911 -5.4189e-019)
(143.141 8.49271 -5.23664e-017)
(145.612 8.73953 5.28464e-020)
(148.085 8.98954 5.28317e-020)
(150.56 9.24271 0)
(153.037 9.499 5.16475e-017)
(155.517 9.75837 -1.03761e-016)
(157.998 10.0208 5.20621e-017)
(160.481 10.2861 5.15681e-017)
(162.966 10.5543 -5.19775e-017)
(165.452 10.8254 0)
(167.939 11.0991 5.13815e-017)
(170.427 11.3756 -5.19062e-017)
(172.916 11.6548 -5.12902e-017)
(175.406 11.9365 5.18789e-017)
(177.896 12.2208 0)
(180.387 12.5074 0)
(182.878 12.7967 0)
(185.369 13.0881 0)
(187.86 13.382 5.10205e-017)
(190.351 13.6781 -5.15174e-017)
(192.843 13.9764 0)
(195.333 14.277 -5.08915e-017)
(197.824 14.5795 5.15017e-017)
(200.313 14.8842 0)
(202.802 15.1908 0)
(205.291 15.4994 -5.06783e-017)
(207.778 15.8099 1.01962e-016)
(210.265 16.1222 -5.12319e-017)
(212.751 16.4362 0)
(215.235 16.7519 0)
(217.718 17.0693 0)
(220.2 17.3882 0)
(222.68 17.7085 1.00866e-016)
(225.158 18.0304 -1.2639e-018)
(227.635 18.3536 -1.01918e-016)
(230.11 18.678 0)
(232.583 19.0037 0)
(235.054 19.3304 0)
(237.522 19.6582 0)
(239.988 19.9869 -1.00298e-016)
(242.451 20.3165 1.01501e-016)
(244.912 20.6468 -5.2609e-020)
(247.37 20.9778 0)
(249.824 21.3093 9.9973e-017)
(252.276 21.6412 -2.01056e-016)
(254.725 21.9735 1.01083e-016)
(257.169 22.3059 5.26559e-020)
(259.61 22.6383 0)
(262.047 22.9707 -5.26803e-020)
(264.481 23.303 -9.94815e-017)
(266.909 23.6347 1.00684e-016)
(269.334 23.9659 0)
(271.753 24.2963 5.27553e-020)
(274.168 24.6259 -5.27638e-020)
(276.577 24.9542 -5.2793e-020)
(278.981 25.2812 9.91259e-017)
(281.379 25.6066 -1.34263e-018)
(283.77 25.9301 -1.00353e-016)
(286.156 26.2516 5.28845e-020)
(288.534 26.5705 0)
(290.905 26.8866 9.87675e-017)
(293.269 27.1997 -1.24867e-018)
(295.625 27.5092 -1.00076e-016)
(297.972 27.8149 9.86607e-017)
(300.31 28.1162 -9.98798e-017)
(302.638 28.4126 -5.31377e-020)
(304.956 28.7037 -5.31925e-020)
(307.263 28.9888 0)
(309.559 29.2674 -5.32905e-020)
(311.842 29.5387 -5.33453e-020)
(314.112 29.8021 9.84383e-017)
(316.369 30.0566 -9.96737e-017)
(318.61 30.3015 -9.83858e-017)
(320.835 30.5359 1.35572e-018)
(323.043 30.7588 9.95444e-017)
(325.233 30.9691 0)
(327.402 31.1656 5.38531e-020)
(329.551 31.3472 -5.39475e-020)
(331.677 31.5124 -5.40465e-020)
(333.779 31.66 0)
(335.855 31.7885 -5.42628e-020)
(337.902 31.8962 -5.43767e-020)
(339.92 31.9816 -9.83572e-017)
(341.905 32.0429 9.96837e-017)
(343.855 32.0784 -5.47743e-020)
(345.767 32.0861 5.49185e-020)
(347.639 32.0641 -5.50707e-020)
(349.466 32.0102 0)
(351.245 31.9222 5.53972e-020)
(352.973 31.7977 9.89199e-017)
(354.644 31.6344 -1.00249e-016)
(356.252 31.4293 -9.92611e-017)
(357.793 31.1796 1.00394e-016)
(359.259 30.8818 -5.63402e-020)
(360.641 30.5323 5.65464e-020)
(361.932 30.127 0)
(363.12 29.6611 -5.6984e-020)
(364.194 29.1296 5.72114e-020)
(365.14 28.5266 -5.74474e-020)
(365.944 27.8459 0)
(366.592 27.0809 5.79385e-020)
(367.066 26.2248 -1.02282e-016)
(367.357 25.2727 1.03065e-016)
(367.442 24.216 5.87259e-020)
(367.317 23.0529 -5.90062e-020)
(366.998 21.7928 -5.92942e-020)
(366.487 20.4376 5.95866e-020)
(365.769 18.9807 -1.06037e-016)
(364.81 17.4058 2.13256e-016)
(363.552 15.6843 -1.07121e-016)
(361.9 13.7685 0)
(359.673 11.5655 -6.1234e-020)
(356.635 8.95367 6.16341e-020)
(352.549 5.8112 -6.20769e-020)
(347.175 2.01507 0)
(340.401 -2.48907 -1.18627e-016)
(332.335 -7.63406 1.16273e-016)
(323.457 -13.1772 1.24515e-016)
(314.619 -18.6518 -1.21425e-016)
(306.667 -23.59 1.29549e-016)
(300.121 -27.7026 4.51469e-018)
(295.113 -30.9237 -1.29526e-016)
(291.559 -33.301 0)
(289.202 -34.9601 -6.79541e-020)
(287.702 -36.0967 6.83995e-020)
(286.769 -36.8787 -1.38272e-016)
(286.21 -37.4204 2.77394e-016)
(285.901 -37.7944 -1.39255e-016)
(285.763 -38.0472 -7.00509e-020)
(285.755 -38.2018 -1.42257e-016)
(285.843 -38.2797 1.42504e-016)
(285.999 -38.2966 -7.12573e-020)
(286.213 -38.2585 -7.1661e-020)
(286.467 -38.1773 7.20634e-020)
(286.738 -38.0662 0)
(286.996 -37.9454 -1.47891e-016)
(287.174 -37.8598 -4.64293e-019)
(287.025 -37.9736 1.49221e-016)
(286.041 -38.6306 1.52092e-016)
(283.32 -40.4441 -1.51553e-016)
(277.063 -44.6546 -1.60846e-016)
(263.76 -53.7351 1.56145e-016)
(239.115 -70.7343 0)
(212.43 -89.1043 1.87407e-016)
(201.252 -96.4222 -1.78867e-016)
(203.993 -93.824 1.83976e-016)
(210.46 -88.4738 -1.86273e-016)
(218.891 -81.6441 1.80712e-016)
(226.137 -75.6375 -4.62782e-018)
(230.857 -71.4579 -1.8357e-016)
(233.234 -68.9997 0)
(234.033 -67.7017 8.57103e-020)
(234.34 -66.7519 -8.61361e-020)
(234.488 -65.9023 1.84648e-016)
(234.628 -65.036 3.00588e-019)
(234.976 -63.9812 -1.8646e-016)
(235.526 -62.7415 -8.79104e-020)
(236.272 -61.3147 1.88052e-016)
(237.334 -59.6007 -1.89257e-016)
(238.559 -57.7208 -1.89345e-016)
(239.687 -55.8861 1.90914e-016)
(240.65 -54.1516 -8.98875e-020)
(241.464 -52.5077 0)
(242.176 -50.9164 1.92697e-016)
(242.85 -49.3272 -3.87788e-016)
(243.528 -47.7083 1.95081e-016)
(244.221 -46.0566 -1.9539e-016)
(244.918 -44.3914 1.96939e-016)
(245.603 -42.7407 -1.97261e-016)
(246.267 -41.1271 1.99074e-016)
(246.911 -39.5703 0)
(247.54 -38.0884 2.00196e-016)
(248.203 -36.6584 -2.01839e-016)
(249.016 -35.1912 -9.55571e-020)
(250.078 -33.6063 0)
(251.352 -31.9402 -2.03145e-016)
(252.674 -30.3392 4.09688e-016)
(254.014 -28.811 -2.06898e-016)
(256.463 -26.2231 9.83455e-020)
(257.598 -24.9689 -1.02727e-019)
(-5.67018e-012 6.04854e-012 0)
(-5.51323e-012 5.93311e-012 0)
(-4.91393e-012 5.76204e-012 0)
(-5.63318e-012 5.59999e-012 0)
(-6.13453e-012 5.73867e-012 0)
(-4.57323e-012 5.29634e-012 0)
(-7.61198e-012 5.43102e-012 0)
(-3.91571e-012 5.19122e-012 0)
(-9.01002e-012 5.2069e-012 0)
(-4.27734e-012 4.95432e-012 0)
(-1.28056e-011 4.71401e-012 0)
(-1.27413e-011 4.50495e-012 0)
(-2.95909e-011 3.33402e-012 0)
(-5.49774e-011 1.86776e-012 0)
(-1.1658e-010 -1.96939e-012 0)
(-2.42801e-010 -1.00687e-011 0)
(-5.12118e-010 -2.73269e-011 0)
(-1.07166e-009 -6.42098e-011 0)
(-2.2302e-009 -1.42849e-010 0)
(-4.60353e-009 -3.08659e-010 0)
(-9.41767e-009 -6.54978e-010 2.73601e-020)
(-1.9089e-008 -1.37151e-009 0)
(-3.83208e-008 -2.84183e-009 0)
(-7.61833e-008 -5.8279e-009 0)
(-1.49932e-007 -1.18364e-008 0)
(-2.92074e-007 -2.38065e-008 0)
(-5.63024e-007 -4.74165e-008 0)
(-1.07377e-006 -9.35114e-008 0)
(-2.02549e-006 -1.82573e-007 0)
(-3.7781e-006 -3.52836e-007 0)
(-6.96656e-006 -6.74832e-007 0)
(-1.26951e-005 -1.27709e-006 0)
(-2.28551e-005 -2.39093e-006 0)
(-4.06357e-005 -4.42729e-006 0)
(-7.13255e-005 -8.10661e-006 0)
(-0.000123541 -1.46748e-005 0)
(-0.000211062 -2.62561e-005 0)
(-0.000355479 -4.64199e-005 0)
(-0.000589898 -8.10735e-005 0)
(-0.000963863 -0.00013984 0)
(-0.00154956 -0.000238141 0)
(-0.00244896 -0.00040027 -2.66331e-020)
(-0.00380101 -0.00066381 -2.65988e-020)
(-0.00578681 -0.00108582 0)
(-0.00862909 -0.00175122 0)
(-0.0125801 -0.00278372 -2.64936e-020)
(-0.0178889 -0.00435957 2.64568e-020)
(-0.0247353 -0.00672394 -2.64187e-020)
(-0.0331154 -0.0102091 -2.63786e-020)
(-0.0426597 -0.0152531 2.6336e-020)
(-0.0523671 -0.0224165 -2.62901e-020)
(-0.0602377 -0.0323933 -2.62402e-020)
(-0.0627992 -0.0460121 2.61855e-020)
(-0.0545745 -0.0642234 -2.61253e-020)
(-0.0278414 -0.0880693 -2.60592e-020)
(0.0261684 -0.118645 2.59861e-020)
(0.119162 -0.157069 -2.59054e-020)
(0.267842 -0.204373 -2.58177e-020)
(0.489937 -0.261406 2.57233e-020)
(0.803233 -0.328812 -2.5623e-020)
(1.22507 -0.406951 -2.55177e-020)
(1.76916 -0.495898 2.54085e-020)
(2.44438 -0.595469 -2.52963e-020)
(3.25449 -0.705275 -2.51818e-020)
(4.1975 -0.824779 2.50659e-020)
(5.26719 -0.953382 -2.49491e-020)
(6.45468 -1.09045 -2.48316e-020)
(7.74895 -1.23538 2.47138e-020)
(9.13856 -1.38759 -2.45957e-020)
(10.6117 -1.54659 -2.44776e-020)
(12.1571 -1.71193 2.43595e-020)
(13.7648 -1.88325 -2.42413e-020)
(15.426 -2.06023 -2.41231e-020)
(17.133 -2.24264 2.40049e-020)
(18.8795 -2.43026 -2.38867e-020)
(20.6599 -2.62293 -2.37685e-020)
(22.4696 -2.82051 2.36504e-020)
(24.3049 -3.02289 -2.35323e-020)
(26.1625 -3.22999 -2.34142e-020)
(28.0401 -3.44173 2.32962e-020)
(29.9353 -3.65806 -2.31783e-020)
(31.8463 -3.87893 -2.30604e-020)
(33.7715 -4.10429 2.29427e-020)
(35.7098 -4.33411 0)
(37.6601 -4.56835 0)
(39.6213 -4.807 -2.25902e-020)
(41.5928 -5.05001 0)
(43.5737 -5.29738 0)
(45.5635 -5.54907 0)
(47.5616 -5.80505 0)
(49.5674 -6.06532 -2.20056e-020)
(51.5806 -6.32985 -2.18893e-020)
(53.6006 -6.59861 0)
(55.6271 -6.8716 0)
(57.6597 -7.14879 0)
(59.6981 -7.43016 0)
(61.7419 -7.71569 -2.131e-020)
(63.7909 -8.00537 -2.11948e-020)
(65.8448 -8.29918 0)
(67.9032 -8.5971 0)
(69.9659 -8.89912 0)
(72.0326 -9.20521 0)
(74.1032 -9.51538 -2.06211e-020)
(76.1772 -9.8296 -2.0507e-020)
(78.2546 -10.1479 0)
(80.3351 -10.4701 0)
(82.4185 -10.7964 0)
(84.5046 -11.1267 0)
(86.5932 -11.461 -1.99385e-020)
(88.6843 -11.7993 -1.98253e-020)
(90.7775 -12.1415 0)
(92.8727 -12.4877 0)
(94.9699 -12.8378 0)
(97.0688 -13.1918 0)
(99.1692 -13.5498 0)
(101.271 -13.9117 -1.9149e-020)
(103.375 -14.2774 -1.90368e-020)
(105.479 -14.6471 0)
(107.585 -15.0206 -1.88126e-020)
(109.692 -15.398 0)
(111.799 -15.7792 0)
(113.908 -16.1643 -1.84773e-020)
(116.018 -16.5531 -1.83657e-020)
(118.128 -16.9458 0)
(120.238 -17.3422 0)
(122.35 -17.7425 0)
(124.461 -18.1464 1.79202e-020)
(126.573 -18.5541 -1.7809e-020)
(128.686 -18.9655 -1.7698e-020)
(130.799 -19.3806 0)
(132.913 -19.7994 0)
(135.027 -20.2218 0)
(137.141 -20.6479 0)
(139.256 -21.0775 -1.71447e-020)
(141.37 -21.5107 0)
(143.486 -21.9474 0)
(145.601 -22.3876 0)
(147.716 -22.8312 0)
(149.831 -23.2783 0)
(151.946 -23.7287 -1.6486e-020)
(154.061 -24.1825 0)
(156.176 -24.6396 0)
(158.291 -25.0998 -1.61566e-020)
(160.405 -25.5635 0)
(162.519 -26.0301 0)
(164.633 -26.5002 -1.58377e-020)
(166.745 -26.9729 0)
(168.857 -27.4492 0)
(170.968 -27.928 0)
(173.079 -28.4102 0)
(175.189 -28.8951 0)
(177.297 -29.3827 0)
(179.404 -29.8736 0)
(181.51 -30.3669 1.49707e-020)
(183.614 -30.863 0)
(185.717 -31.362 0)
(187.818 -31.8634 0)
(189.916 -32.3676 0)
(192.013 -32.8744 0)
(194.107 -33.3835 0)
(196.198 -33.8953 -1.42296e-020)
(198.287 -34.4096 1.41269e-020)
(200.372 -34.9262 0)
(202.453 -35.4452 0)
(204.531 -35.9667 0)
(206.605 -36.4904 0)
(208.673 -37.0164 -1.36021e-020)
(210.737 -37.5447 0)
(212.796 -38.0754 1.3397e-020)
(214.848 -38.6081 -1.32927e-020)
(216.894 -39.1431 1.31889e-020)
(218.933 -39.6805 0)
(220.964 -40.22 -1.29852e-020)
(222.986 -40.7617 1.28821e-020)
(224.999 -41.3057 1.27795e-020)
(227.003 -41.8519 0)
(228.995 -42.4005 1.25776e-020)
(230.976 -42.9513 1.24755e-020)
(232.943 -43.5044 -1.23741e-020)
(234.897 -44.06 0)
(236.834 -44.6181 1.21739e-020)
(238.755 -45.1787 -1.20733e-020)
(240.658 -45.7418 1.19726e-020)
(242.541 -46.3077 0)
(244.402 -46.8766 -1.17741e-020)
(246.239 -47.4483 1.1675e-020)
(248.051 -48.0232 1.15754e-020)
(249.835 -48.6013 0)
(251.588 -49.183 1.13782e-020)
(253.31 -49.7684 1.12803e-020)
(254.996 -50.3576 -1.11823e-020)
(256.644 -50.951 0)
(258.251 -51.5489 1.09864e-020)
(259.815 -52.1515 -1.08895e-020)
(261.333 -52.7593 1.07929e-020)
(262.802 -53.3724 0)
(264.219 -53.9913 -1.05996e-020)
(265.582 -54.6163 1.05036e-020)
(266.887 -55.2479 1.04083e-020)
(268.134 -55.8865 0)
(269.319 -56.5324 1.02191e-020)
(270.443 -57.1861 1.01248e-020)
(271.503 -57.848 -1.00314e-020)
(272.501 -58.5186 0)
(273.435 -59.1981 9.84745e-021)
(274.308 -59.887 -9.75691e-021)
(275.121 -60.5855 9.66722e-021)
(275.876 -61.2938 0)
(276.577 -62.0122 -9.4918e-021)
(277.226 -62.7408 9.40667e-021)
(277.828 -63.4798 9.32364e-021)
(278.387 -64.2289 0)
(278.906 -64.988 9.16318e-021)
(279.39 -65.7569 9.08651e-021)
(279.843 -66.5355 -9.01331e-021)
(280.268 -67.3231 0)
(280.668 -68.1192 8.87658e-021)
(281.047 -68.923 -8.81357e-021)
(281.407 -69.7338 8.75516e-021)
(281.749 -70.5506 0)
(282.075 -71.3724 -8.6533e-021)
(282.386 -72.198 8.61077e-021)
(282.682 -73.0258 0)
(282.964 -73.8545 -8.5451e-021)
(283.23 -74.6824 8.52283e-021)
(283.479 -75.508 8.50747e-021)
(283.713 -76.3285 -8.49867e-021)
(283.934 -77.1421 0)
(284.148 -77.9469 8.50224e-021)
(284.361 -78.7408 -8.51706e-021)
(284.584 -79.521 0)
(284.839 -80.2835 8.5896e-021)
(285.144 -81.0266 -8.6631e-021)
(285.519 -81.7432 8.77476e-021)
(285.981 -82.4237 0)
(286.533 -83.0568 -9.15699e-021)
(287.176 -83.6265 9.4419e-021)
(287.896 -84.1145 9.78642e-021)
(288.667 -84.5105 0)
(289.46 -84.8187 1.05308e-020)
(290.25 -85.051 1.0865e-020)
(291.009 -85.2217 -1.11509e-020)
(291.7 -85.3454 0)
(292.301 -85.4355 1.15575e-020)
(292.808 -85.5024 -1.16931e-020)
(293.227 -85.5533 1.17987e-020)
(293.567 -85.5933 0)
(293.84 -85.6258 -1.19527e-020)
(294.056 -85.6534 1.20113e-020)
(294.225 -85.678 1.20615e-020)
(294.357 -85.7011 0)
(294.456 -85.7239 1.21429e-020)
(294.528 -85.7472 1.21766e-020)
(294.578 -85.7718 -1.22066e-020)
(294.61 -85.7981 0)
(294.626 -85.8263 1.22592e-020)
(294.629 -85.8561 -1.22855e-020)
(294.624 -85.8861 1.2321e-020)
(294.615 -85.9111 0)
(294.606 -85.9192 -1.25485e-020)
(294.616 -85.8862 1.28764e-020)
(294.682 -85.7621 1.35612e-020)
(294.843 -85.4461 0)
(295.115 -84.7908 1.71766e-020)
(295.456 -83.897 1.83798e-020)
(295.804 -83.0107 -1.8293e-020)
(296.136 -82.1571 0)
(296.44 -81.3787 1.76305e-020)
(296.714 -80.6812 -1.71651e-020)
(296.97 -80.0347 1.68656e-020)
(297.218 -79.416 0)
(297.468 -78.8023 -1.67333e-020)
(297.728 -78.1857 1.67535e-020)
(298 -77.5639 1.67859e-020)
(298.286 -76.9352 0)
(298.584 -76.3016 1.68554e-020)
(298.892 -75.6656 1.68631e-020)
(299.204 -75.0285 -1.68552e-020)
(299.515 -74.3935 0)
(299.818 -73.7647 1.67696e-020)
(300.111 -73.142 -1.67121e-020)
(300.396 -72.5238 1.66613e-020)
(300.675 -71.9087 0)
(300.955 -71.2956 -1.65781e-020)
(301.246 -70.6842 1.65369e-020)
(301.56 -70.0745 1.64948e-020)
(301.912 -69.467 0)
(302.312 -68.8619 1.64029e-020)
(302.773 -68.2597 1.63543e-020)
(303.308 -67.6604 -1.63138e-020)
(303.92 -67.0643 0)
(304.617 -66.4716 1.62374e-020)
(305.4 -65.8833 -1.62051e-020)
(306.265 -65.3015 1.61671e-020)
(307.209 -64.7305 0)
(308.225 -64.1764 -1.60559e-020)
(309.297 -63.6437 1.5994e-020)
(310.436 -63.1355 0)
(311.36 -62.6581 -1.58804e-020)
(313.427 -62.2505 1.56516e-020)
(313.735 -62.2986 0)
(314.379 -62.3472 0)
(315.237 -62.3959 0)
(315.953 -62.4448 0)
(316.565 -62.4937 0)
(317.091 -62.5428 0)
(317.549 -62.5921 0)
(317.953 -62.6415 0)
(318.311 -62.6912 0)
(318.631 -62.741 0)
(318.917 -62.791 0)
(319.172 -62.8413 0)
(319.399 -62.8917 0)
(319.601 -62.9424 0)
(319.78 -62.9934 0)
(319.938 -63.0446 0)
(320.078 -63.0961 0)
(320.202 -63.1479 0)
(320.312 -63.2 0)
(320.408 -63.2523 0)
(320.494 -63.305 0)
(320.569 -63.358 0)
(320.636 -63.4113 0)
(320.695 -63.4649 0)
(320.747 -63.5189 0)
(320.794 -63.5733 0)
(320.834 -63.628 0)
(320.87 -63.6831 0)
(320.9 -63.7385 0)
(320.925 -63.7944 0)
(320.946 -63.8507 0)
(320.962 -63.9074 0)
(320.973 -63.9645 0)
(320.979 -64.022 0)
(320.98 -64.08 0)
(320.975 -64.1384 0)
(320.965 -64.1973 0)
(320.948 -64.2567 0)
(320.928 -64.3165 0)
(320.902 -64.3769 0)
(320.867 -64.4378 0)
(320.833 -64.4991 0)
(320.793 -64.561 0)
(320.739 -64.6235 0)
(320.68 -64.6864 0)
(320.611 -64.75 0)
(320.532 -64.8141 0)
(320.444 -64.8788 0)
(320.347 -64.9441 0)
(320.241 -65.0099 0)
(320.126 -65.0764 0)
(320.001 -65.1436 0)
(319.867 -65.2113 0)
(319.722 -65.2797 0)
(319.567 -65.3488 0)
(319.402 -65.4185 0)
(319.226 -65.4889 0)
(319.039 -65.5601 0)
(318.842 -65.6319 0)
(318.633 -65.7044 0)
(318.413 -65.7777 0)
(318.183 -65.8517 0)
(317.94 -65.9265 0)
(317.688 -66.002 0)
(317.426 -66.0783 0)
(317.154 -66.1554 0)
(316.873 -66.2333 0)
(316.582 -66.312 0)
(316.284 -66.3916 0)
(315.978 -66.472 0)
(315.664 -66.5532 0)
(315.344 -66.6352 0)
(315.017 -66.7182 0)
(314.686 -66.8019 0)
(314.349 -66.8866 0)
(314.009 -66.9722 0)
(313.666 -67.0586 0)
(313.32 -67.146 0)
(312.971 -67.2342 0)
(312.621 -67.3234 0)
(312.268 -67.4135 0)
(311.915 -67.5044 0)
(311.561 -67.5964 0)
(311.206 -67.6892 0)
(310.85 -67.783 0)
(310.494 -67.8778 0)
(310.138 -67.9735 0)
(309.78 -68.0701 0)
(309.422 -68.1678 0)
(309.062 -68.2664 0)
(308.701 -68.366 0)
(308.337 -68.4665 0)
(307.97 -68.5681 0)
(307.598 -68.6707 0)
(307.221 -68.7744 0)
(306.835 -68.879 0)
(306.439 -68.9848 0)
(306.031 -69.0916 0)
(305.601 -69.1995 0)
(305.188 -69.3085 0)
(285.827 -55.1201 2.37422e-019)
(286.462 -54.4067 -4.36388e-016)
(287.343 -53.4703 8.65126e-016)
(287.949 -52.8297 -4.17977e-019)
(288.346 -52.419 -4.23766e-016)
(288.735 -52.0492 1.99044e-019)
(289.171 -51.6722 -4.13798e-016)
(289.633 -51.3043 4.09981e-016)
(290.083 -50.9762 1.92511e-019)
(290.505 -50.6933 -4.00319e-016)
(290.907 -50.4446 7.93088e-016)
(291.296 -50.2174 -7.84638e-016)
(291.676 -50.0035 3.88785e-016)
(292.051 -49.7957 1.82702e-019)
(292.416 -49.5922 3.79778e-016)
(292.768 -49.3918 -5.26756e-019)
(293.102 -49.1956 -3.72451e-016)
(293.424 -48.9971 3.67871e-016)
(293.78 -48.7612 -3.63772e-016)
(294.141 -48.5077 0)
(294.461 -48.2677 1.6866e-019)
(294.745 -48.0339 -3.49423e-016)
(294.984 -47.8085 3.45949e-016)
(295.182 -47.5864 1.62611e-019)
(295.344 -47.3608 -3.37455e-016)
(295.474 -47.1254 3.34622e-016)
(295.577 -46.8745 -3.30313e-016)
(295.657 -46.604 3.27828e-016)
(295.718 -46.3096 1.54552e-019)
(295.761 -45.9892 0)
(295.787 -45.6407 0)
(295.799 -45.2621 -3.1564e-016)
(295.793 -44.8526 3.13689e-016)
(295.769 -44.4111 3.10824e-016)
(295.725 -43.9361 -3.08714e-016)
(295.657 -43.4257 3.06018e-016)
(295.562 -42.8773 -3.04006e-016)
(295.436 -42.2871 0)
(295.277 -41.6503 2.99034e-016)
(295.08 -40.9609 -2.97134e-016)
(294.841 -40.212 -2.94719e-016)
(294.558 -39.3957 2.93221e-016)
(294.226 -38.5037 -2.90694e-016)
(293.842 -37.5273 2.89348e-016)
(293.401 -36.4576 0)
(292.899 -35.2864 0)
(292.335 -34.0064 1.35503e-019)
(291.706 -32.6121 2.81716e-016)
(291.01 -31.1006 -2.80121e-016)
(290.249 -29.4705 -2.77959e-016)
(289.422 -27.7262 5.52294e-016)
(288.519 -25.8797 -2.74294e-016)
(287.523 -23.9505 2.71833e-016)
(286.51 -21.9281 -2.69795e-016)
(285.532 -19.8217 2.6673e-016)
(284.507 -17.6921 -2.6393e-016)
(283.428 -15.5724 1.24776e-019)
(282.343 -13.4782 0)
(281.266 -11.4388 0)
(280.204 -9.48524 -2.51537e-016)
(279.165 -7.64666 2.49093e-016)
(278.16 -5.94838 -2.45962e-016)
(277.199 -4.41158 2.43914e-016)
(276.289 -3.05316 0)
(275.436 -1.88488 0)
(274.644 -0.912863 0)
(273.915 -0.137508 -2.34729e-016)
(273.252 0.446139 2.33207e-016)
(272.653 0.847753 2.30877e-016)
(272.116 1.08156 -2.06266e-019)
(271.64 1.16477 -2.27604e-016)
(271.215 1.11571 1.08502e-019)
(270.839 0.954052 0)
(270.505 0.700601 -2.22335e-016)
(270.207 0.375056 2.21059e-016)
(269.939 -0.0041012 1.0962e-016)
(269.694 -0.419912 -1.09009e-016)
(269.468 -0.857388 -1.08122e-016)
(269.256 -1.30324 1.07523e-016)
(269.058 -1.74624 0)
(268.868 -2.17791 -1.05894e-016)
(268.683 -2.59179 1.05294e-016)
(268.503 -2.98311 -1.04408e-016)
(268.325 -3.34868 1.03817e-016)
(268.15 -3.68672 0)
(267.98 -3.99663 0)
(267.815 -4.27881 0)
(267.657 -4.53453 0)
(267.507 -4.76567 0)
(267.368 -4.97459 -9.94958e-017)
(267.241 -5.16402 9.89652e-017)
(267.124 -5.33702 0)
(267.018 -5.49659 0)
(266.925 -5.64565 0)
(266.842 -5.7871 0)
(266.769 -5.92374 0)
(266.706 -6.05814 0)
(266.651 -6.19259 9.44576e-017)
(266.603 -6.32916 -1.04338e-019)
(266.562 -6.46967 -9.33672e-017)
(266.527 -6.6157 0)
(266.496 -6.7686 0)
(266.47 -6.9295 0)
(266.445 -7.0993 0)
(266.422 -7.27875 0)
(266.398 -7.46842 -8.98445e-017)
(266.373 -7.66872 1.06377e-019)
(266.342 -7.87994 1.0884e-019)
(266.306 -8.10227 8.83206e-017)
(266.262 -8.33577 0)
(266.208 -8.58044 0)
(266.142 -8.83628 0)
(266.064 -9.10308 0)
(265.971 -9.38062 0)
(265.862 -9.6687 0)
(265.736 -9.96706 0)
(265.592 -10.2754 -8.407e-017)
(265.429 -10.5933 1.58835e-019)
(265.247 -10.9203 1.65221e-019)
(265.044 -11.2561 8.27579e-017)
(264.82 -11.6001 0)
(264.575 -11.9519 0)
(264.306 -12.3108 0)
(264.014 -12.6762 0)
(263.696 -13.0477 -4.00972e-017)
(263.353 -13.4246 3.99715e-017)
(262.983 -13.8064 3.96308e-017)
(262.587 -14.1926 -7.89158e-017)
(262.167 -14.5827 3.92904e-017)
(261.727 -14.976 3.89451e-017)
(261.273 -15.3719 -3.88448e-017)
(260.816 -15.7697 0)
(260.371 -16.1684 0)
(259.956 -16.5676 0)
(259.582 -16.967 3.78559e-017)
(259.234 -17.3679 -3.77688e-017)
(258.807 -17.7733 1.86974e-017)
(257.952 -18.1911 -1.87049e-017)
(255.824 -18.6333 0)
(250.702 -19.1136 0)
(239.533 -19.634 0)
(218.688 -20.1369 1.69275e-017)
(186.577 -20.4532 -1.87437e-017)
(146.799 -20.324 0)
(107.867 -19.5568 7.84623e-018)
(77.0742 -18.1705 -8.24677e-019)
(55.6808 -16.3316 -8.25153e-018)
(40.8524 -14.1825 0)
(30.4001 -11.8514 0)
(15.7945 -9.24272 0)
(303.342 -69.6252 -2.0966e-020)
(302.485 -69.9977 0)
(301.957 -70.4239 -2.14725e-020)
(301.506 -70.9006 -2.18846e-020)
(301.043 -71.4254 0)
(300.566 -71.9971 -2.30407e-020)
(300.092 -72.6134 0)
(299.627 -73.2702 -2.4454e-020)
(299.178 -73.9616 -2.52093e-020)
(298.745 -74.6798 0)
(298.329 -75.4152 -2.67243e-020)
(297.927 -76.1569 0)
(297.534 -76.8928 -2.81316e-020)
(297.148 -77.6101 -2.87659e-020)
(296.768 -78.2961 0)
(296.392 -78.9383 -2.98648e-020)
(296.02 -79.5252 0)
(295.653 -80.046 -3.07244e-020)
(295.291 -80.492 -3.10742e-020)
(294.935 -80.8567 0)
(294.585 -81.1345 -3.16192e-020)
(294.247 -81.3218 -3.18288e-020)
(293.927 -81.4165 0)
(293.623 -81.418 -3.2141e-020)
(293.333 -81.3271 0)
(293.055 -81.1459 -3.23442e-020)
(292.79 -80.8775 -3.24169e-020)
(292.535 -80.5258 0)
(292.291 -80.0955 -3.25216e-020)
(292.057 -79.5918 0)
(291.835 -79.0199 0)
(291.624 -78.3855 -3.26163e-020)
(291.425 -77.6942 0)
(291.239 -76.9514 -3.26595e-020)
(291.066 -76.1626 0)
(290.907 -75.3329 -3.26979e-020)
(290.761 -74.4673 0)
(290.629 -73.5707 0)
(290.509 -72.6473 0)
(290.402 -71.7014 -3.27775e-020)
(290.306 -70.7371 0)
(290.222 -69.758 -3.28201e-020)
(290.149 -68.7677 0)
(290.086 -67.7696 -3.28629e-020)
(290.035 -66.7668 0)
(289.994 -65.7625 0)
(289.965 -64.7596 -3.29255e-020)
(289.947 -63.7612 0)
(289.942 -62.7703 -3.29667e-020)
(289.95 -61.79 0)
(289.97 -60.8234 0)
(290.004 -59.874 0)
(290.052 -58.945 0)
(290.114 -58.0399 0)
(290.191 -57.1634 -3.30907e-020)
(290.28 -56.3202 0)
(290.383 -55.5143 -3.31295e-020)
(290.497 -54.7503 0)
(290.623 -54.0331 0)
(290.763 -53.3676 0)
(290.913 -52.7588 0)
(291.069 -52.2114 -3.32447e-020)
(291.232 -51.7298 0)
(291.403 -51.3181 0)
(291.58 -50.9795 0)
(291.762 -50.7163 0)
(291.949 -50.5301 0)
(292.139 -50.4212 -3.3347e-020)
(292.328 -50.3886 0)
(292.515 -50.43 -3.33736e-020)
(292.72 -50.5416 0)
(292.933 -50.7176 -3.33653e-020)
(293.135 -50.9511 0)
(293.331 -51.2341 0)
(293.527 -51.5574 0)
(293.722 -51.9107 0)
(293.918 -52.2834 0)
(294.115 -52.6643 0)
(294.306 -53.0422 0)
(294.492 -53.4064 0)
(294.677 -53.7464 0)
(294.858 -54.0525 0)
(295.034 -54.316 0)
(295.205 -54.5295 0)
(295.37 -54.6868 0)
(295.528 -54.7832 0)
(295.679 -54.8156 0)
(295.822 -54.7822 0)
(295.956 -54.6829 0)
(296.082 -54.5185 0)
(296.201 -54.2914 0)
(296.312 -54.0046 0)
(296.413 -53.662 0)
(296.504 -53.2681 0)
(296.587 -52.8278 0)
(296.664 -52.346 0)
(296.733 -51.8279 0)
(296.795 -51.2786 0)
(296.85 -50.7029 0)
(296.898 -50.1054 0)
(296.94 -49.4905 0)
(296.975 -48.862 0)
(297.004 -48.2234 0)
(297.027 -47.5779 0)
(297.045 -46.9281 0)
(297.058 -46.2762 0)
(297.066 -45.6243 0)
(297.071 -44.9739 0)
(297.072 -44.3263 0)
(297.069 -43.6825 0)
(297.062 -43.0433 0)
(297.052 -42.4094 0)
(297.038 -41.7809 0)
(297.021 -41.1583 0)
(297 -40.5414 0)
(296.975 -39.9304 0)
(296.946 -39.325 0)
(296.914 -38.7251 0)
(296.88 -38.1305 0)
(296.842 -37.541 0)
(296.803 -36.9562 0)
(296.763 -36.376 0)
(296.721 -35.7998 0)
(296.678 -35.2273 0)
(296.634 -34.6581 0)
(296.59 -34.0917 0)
(296.546 -33.5277 0)
(296.502 -32.9654 0)
(296.459 -32.4046 0)
(296.416 -31.8447 0)
(296.375 -31.2855 0)
(296.335 -30.7267 0)
(296.298 -30.1681 0)
(296.265 -29.6099 0)
(296.235 -29.052 0)
(296.211 -28.4948 0)
(296.189 -27.9378 0)
(296.167 -27.3797 0)
(296.139 -26.8149 0)
(296.1 -26.2292 0)
(296.046 -25.5919 0)
(295.977 -24.846 0)
(295.888 -23.9148 0)
(295.731 -22.7293 0)
(295.601 -21.2622 0)
(295.804 -19.5364 0)
(296.652 -17.6059 0)
(297.003 -15.5301 0)
(295.933 -13.3503 0)
(280.841 -11.102 0)
)
;

boundaryField
{
    inlet
    {
        type            zeroGradient;
    }
    outlet
    {
        type            zeroGradient;
    }
    bottom
    {
        type            symmetryPlane;
    }
    top
    {
        type            symmetryPlane;
    }
    obstacle
    {
        type            zeroGradient;
    }
    defaultFaces
    {
        type            empty;
    }
}


// ************************************************************************* //
