/*--------------------------------*- C++ -*----------------------------------*\
| =========                 |                                                 |
| \\      /  F ield         | OpenFOAM: The Open Source CFD Toolbox           |
|  \\    /   O peration     | Version:  5.x                                   |
|   \\  /    A nd           | Web:      www.OpenFOAM.org                      |
|    \\/     M anipulation  |                                                 |
\*---------------------------------------------------------------------------*/
/*   Windows 32 and 64 bit porting by blueCAPE: http://www.bluecape.com.pt   *\
|  Based on Windows porting (2.0.x v4) by Symscape: http://www.symscape.com   |
\*---------------------------------------------------------------------------*/
FoamFile
{
    version     2.0;
    format      ascii;
    class       volScalarField;
    location    "0.01";
    object      mag(U);
}
// * * * * * * * * * * * * * * * * * * * * * * * * * * * * * * * * * * * * * //

dimensions      [0 1 -1 0 0 0 0];

internalField   nonuniform List<scalar> 
10000
(
0.390131
1.34015
3.17242
6.82163
13.0124
22.0818
33.6809
46.9116
60.864
74.9039
88.756
102.315
115.543
128.403
140.891
152.974
164.667
175.903
186.743
197.127
207.005
216.417
225.378
233.804
241.62
248.843
255.524
261.656
267.169
271.992
276.111
279.604
282.556
285.011
287.013
288.601
289.787
290.574
291.085
291.42
291.632
291.788
291.885
291.964
292.053
292.151
292.29
292.498
292.818
293.253
293.817
294.56
295.487
296.564
297.729
298.837
299.804
300.74
301.726
302.724
0.388303
1.33168
3.14754
6.76323
12.899
21.8952
33.4148
46.5728
60.4665
74.4614
88.2797
101.813
115.026
127.878
140.365
152.459
164.168
175.43
186.305
196.723
206.644
216.118
225.145
233.632
241.516
248.826
255.61
261.848
267.462
272.387
276.611
280.219
283.297
285.88
287.999
289.698
290.988
291.863
292.473
292.892
293.168
293.406
293.577
293.718
293.857
294.006
294.193
294.411
294.704
295.074
295.555
296.174
296.917
297.794
298.753
299.675
300.405
301.024
301.668
302.283
0.388482
1.33223
3.14893
6.76668
12.9066
21.9094
33.4371
46.6023
60.5
74.494
88.3058
101.827
115.019
127.849
140.305
152.37
164.016
175.262
186.067
196.422
206.325
215.742
224.668
233.087
240.946
248.22
254.92
261.053
266.588
271.472
275.675
279.249
282.265
284.773
286.819
288.459
289.709
290.552
291.111
291.487
291.731
291.912
292.036
292.13
292.225
292.322
292.436
292.591
292.829
293.161
293.58
294.099
294.768
295.565
296.409
297.196
297.801
298.287
298.788
299.206
0.387018
1.3253
3.12809
6.71689
12.8085
21.746
33.2017
46.3003
60.1434
74.0952
87.8746
101.371
114.551
127.371
139.821
151.903
163.552
174.848
185.657
196.032
206.009
215.478
224.421
232.888
240.855
248.244
255.018
261.192
266.781
271.774
276.128
279.854
282.996
285.59
287.687
289.382
290.699
291.627
292.316
292.79
293.107
293.391
293.581
293.712
293.841
293.978
294.138
294.305
294.521
294.804
295.168
295.617
296.154
296.796
297.492
298.138
298.585
298.851
299.092
299.214
0.386943
1.3249
3.12724
6.71586
12.8085
21.7494
33.2106
46.3144
60.1607
74.1116
87.8855
101.372
114.531
127.331
139.759
151.805
163.409
174.662
185.436
195.762
205.687
215.11
224.003
232.406
240.304
247.635
254.363
260.49
266.023
270.949
275.237
278.907
282.004
284.564
286.632
288.29
289.579
290.462
291.067
291.492
291.764
291.977
292.129
292.228
292.311
292.391
292.49
292.607
292.78
293.044
293.384
293.802
294.336
294.986
295.694
296.356
296.855
297.199
297.47
297.616
0.385754
1.31918
3.10971
6.67333
12.7235
21.606
33.0017
46.0445
59.84
73.7514
87.4944
100.957
114.105
126.894
139.314
151.371
162.998
174.268
185.058
195.421
205.379
214.83
223.776
232.255
240.226
247.612
254.393
260.597
266.234
271.278
275.671
279.425
282.596
285.228
287.373
289.126
290.499
291.474
292.21
292.691
293.008
293.299
293.485
293.61
293.735
293.874
294.027
294.177
294.373
294.631
294.959
295.352
295.83
296.432
297.092
297.705
298.187
298.502
298.689
298.749
0.385506
1.31812
3.1072
6.66885
12.7176
21.6008
32.9999
46.0463
59.8444
73.7548
87.4932
100.947
114.075
126.848
139.249
151.271
162.854
174.085
184.847
195.165
205.076
214.493
223.391
231.805
239.71
247.048
253.794
259.957
265.539
270.516
274.845
278.553
281.693
284.305
286.429
288.145
289.499
290.427
291.069
291.514
291.786
292.014
292.179
292.282
292.359
292.438
292.537
292.643
292.801
293.047
293.375
293.786
294.3
294.944
295.682
296.395
296.998
297.457
297.766
297.964
0.384521
1.31333
3.09236
6.63236
12.6438
21.4748
32.8142
45.8044
59.5552
73.4286
87.1375
100.568
113.687
126.446
138.839
150.872
162.478
173.724
184.495
194.845
204.788
214.227
223.171
231.655
239.631
247.022
253.814
260.04
265.711
270.796
275.229
279.019
282.225
284.895
287.08
288.879
290.298
291.318
292.095
292.59
292.911
293.207
293.388
293.51
293.631
293.772
293.924
294.071
294.259
294.516
294.841
295.227
295.706
296.325
297.022
297.682
298.264
298.721
299.007
299.131
0.384163
1.31182
3.08867
6.62533
12.6333
21.4628
32.8038
45.7965
59.5494
73.4218
87.1269
100.55
113.648
126.395
138.773
150.771
162.334
173.547
184.297
194.604
204.505
213.916
222.816
231.238
239.151
246.499
253.262
259.457
265.078
270.1
274.469
278.215
281.399
284.062
286.235
288.004
289.415
290.382
291.061
291.526
291.803
292.046
292.225
292.334
292.408
292.481
292.575
292.672
292.815
293.044
293.358
293.756
294.239
294.868
295.613
296.344
297.008
297.555
297.927
298.136
0.383328
1.30775
3.07599
6.59385
12.569
21.3518
32.6384
45.5792
59.2879
73.1257
86.8025
100.203
113.294
126.026
138.394
150.404
161.99
173.215
183.967
194.305
204.234
213.662
222.603
231.089
239.071
246.468
253.271
259.515
265.213
270.336
274.808
278.636
281.875
284.58
286.803
288.639
290.099
291.163
291.978
292.493
292.819
293.116
293.295
293.414
293.533
293.668
293.814
293.949
294.117
294.352
294.651
295.012
295.454
296.038
296.719
297.377
297.984
298.49
298.819
298.947
0.382906
1.30596
3.07151
6.585
12.5551
21.3345
32.6212
45.5635
59.2741
73.1109
86.7849
100.179
113.25
125.973
138.328
150.304
161.846
173.045
183.781
194.078
203.971
213.378
222.277
230.702
238.625
245.986
252.767
258.985
264.637
269.698
274.109
277.899
281.127
283.835
286.049
287.863
289.323
290.326
291.043
291.531
291.82
292.081
292.277
292.394
292.467
292.539
292.632
292.72
292.85
293.064
293.361
293.737
294.185
294.782
295.513
296.239
296.919
297.496
297.882
298.075
0.382182
1.30245
3.06057
6.55767
12.4988
21.2365
32.4736
45.368
59.0371
72.8413
86.4882
99.8606
112.926
125.632
137.976
149.965
161.532
172.738
183.471
193.798
203.715
213.132
222.068
230.556
238.544
245.951
252.763
259.021
264.741
269.896
274.408
278.274
281.546
284.283
286.54
288.407
289.904
291.01
291.86
292.402
292.733
293.029
293.213
293.334
293.454
293.585
293.728
293.861
294.019
294.241
294.528
294.88
295.302
295.857
296.53
297.199
297.832
298.375
298.725
298.862
0.381727
1.30052
3.0556
6.54761
12.4825
21.2152
32.4511
45.3463
59.0171
72.8206
86.4654
99.8322
112.878
125.578
137.911
149.866
161.391
172.576
183.298
193.585
203.471
212.875
221.771
230.198
238.13
245.506
252.304
258.541
264.219
269.313
273.767
277.601
280.87
283.619
285.871
287.724
289.227
290.265
291.017
291.533
291.837
292.115
292.326
292.451
292.527
292.603
292.701
292.79
292.917
293.13
293.426
293.8
294.243
294.829
295.565
296.319
297.04
297.672
298.115
298.333
0.381086
1.29744
3.04605
6.52369
12.433
21.1283
32.3191
45.1699
58.8019
72.5745
86.1932
99.5393
112.58
125.262
137.585
149.554
161.103
172.29
183.005
193.323
203.228
212.635
221.566
230.054
238.049
245.464
252.286
258.555
264.295
269.479
274.029
277.932
281.235
284.001
286.29
288.187
289.717
290.863
291.745
292.315
292.654
292.949
293.138
293.263
293.387
293.519
293.664
293.803
293.963
294.186
294.477
294.843
295.278
295.833
296.527
297.246
297.943
298.567
299.009
299.211
0.38062
1.29544
3.04083
6.51289
12.415
21.1042
32.2927
45.1437
58.7772
72.5494
86.167
99.5083
112.531
125.208
137.522
149.456
160.965
172.137
182.845
193.124
203.003
212.402
221.297
229.727
237.667
245.055
251.868
258.123
263.825
268.952
273.444
277.319
280.625
283.41
285.697
287.59
289.131
290.205
290.991
291.534
291.853
292.146
292.371
292.507
292.591
292.673
292.776
292.876
293.015
293.241
293.55
293.942
294.405
295.002
295.767
296.579
297.375
298.1
298.645
298.939
0.380044
1.2927
3.0324
6.49179
12.3712
21.0269
32.1743
44.9842
58.5813
72.3243
85.9165
99.238
112.256
124.915
137.219
149.168
160.701
171.869
182.567
192.879
202.771
212.168
221.095
229.585
237.584
245.006
251.835
258.116
263.875
269.087
273.671
277.606
280.938
283.731
286.052
287.979
289.542
290.725
291.637
292.232
292.582
292.877
293.069
293.195
293.326
293.465
293.619
293.77
293.934
294.165
294.473
294.862
295.321
295.894
296.62
297.406
298.188
298.912
299.467
299.761
0.379581
1.29071
3.0271
6.48064
12.3523
21.0009
32.1451
44.9547
58.5532
72.296
85.8881
99.2056
112.206
124.863
137.157
149.072
160.568
171.726
182.421
192.694
202.566
211.959
220.853
229.286
237.234
244.632
251.457
257.728
263.455
268.613
273.142
277.052
280.39
283.207
285.529
287.459
289.035
290.146
290.967
291.534
291.868
292.173
292.409
292.556
292.649
292.736
292.847
292.959
293.111
293.352
293.677
294.089
294.575
295.189
295.983
296.853
297.723
298.538
299.183
299.561
0.379056
1.28824
3.01957
6.46186
12.3133
20.9319
32.0385
44.8101
58.3744
72.0897
85.657
98.9553
111.952
124.59
136.876
148.806
160.324
171.474
182.156
192.462
202.343
211.728
220.653
229.145
237.148
244.574
251.409
257.702
263.48
268.719
273.333
277.299
280.656
283.474
285.825
287.781
289.376
290.594
291.533
292.154
292.516
292.809
293.003
293.133
293.271
293.416
293.573
293.731
293.901
294.138
294.457
294.862
295.34
295.921
296.67
297.504
298.351
299.155
299.797
300.168
0.378605
1.28628
3.01432
6.45064
12.294
20.9048
32.0075
44.7783
58.3441
72.0592
85.6274
98.9226
111.902
124.54
136.817
148.713
160.197
171.342
182.023
192.292
202.156
211.543
220.436
228.874
236.829
244.235
251.07
257.357
263.107
268.294
272.857
276.8
280.167
283.011
285.367
287.333
288.939
290.088
290.944
291.532
291.881
292.197
292.44
292.594
292.695
292.788
292.906
293.022
293.18
293.432
293.761
294.175
294.669
295.28
296.077
296.969
297.874
298.738
299.437
299.862
0.378121
1.28404
3.00754
6.4338
12.259
20.8428
31.9113
44.6469
58.1805
71.8697
85.4137
98.6903
111.667
124.285
136.554
148.466
159.971
171.104
181.77
192.072
201.941
211.316
220.238
228.732
236.738
244.168
251.009
257.312
263.109
268.371
273.014
277.008
280.39
283.23
285.609
287.595
289.22
290.469
291.435
292.08
292.454
292.746
292.941
293.076
293.218
293.364
293.516
293.671
293.844
294.077
294.387
294.784
295.254
295.817
296.548
297.381
298.237
299.061
299.729
300.118
0.377688
1.28215
3.00241
6.42272
12.2397
20.8153
31.8793
44.6137
58.1487
71.838
85.3837
98.658
111.619
124.237
136.498
148.377
159.851
170.983
181.65
191.917
201.773
211.152
220.045
228.488
236.449
243.862
250.706
257.007
262.779
267.995
272.589
276.562
279.956
282.824
285.21
287.211
288.848
290.032
290.92
291.53
291.895
292.218
292.466
292.622
292.73
292.829
292.941
293.052
293.206
293.452
293.759
294.145
294.614
295.186
295.934
296.784
297.655
298.498
299.18
299.58
0.37724
1.28009
2.99625
6.4075
12.2081
20.7592
31.792
44.4939
57.9987
71.6634
85.1857
98.4419
111.4
123.999
136.253
148.147
159.64
170.756
181.408
191.706
201.564
210.928
219.849
228.345
236.354
243.786
250.632
256.945
262.76
268.045
272.715
276.734
280.138
282.999
285.405
287.422
289.074
290.353
291.345
292.012
292.398
292.691
292.886
293.023
293.167
293.311
293.454
293.597
293.759
293.973
294.252
294.608
295.033
295.542
296.209
296.976
297.773
298.548
299.17
299.501
0.376827
1.27828
2.99131
6.39672
12.1891
20.7319
31.7597
44.4601
57.9661
71.6312
85.1558
98.4104
111.353
123.954
136.201
148.062
159.528
170.646
181.301
191.567
201.413
210.784
219.68
228.13
236.096
243.511
250.362
256.679
262.476
267.719
272.342
276.34
279.755
282.645
285.062
287.099
288.766
289.986
290.906
291.538
291.92
292.249
292.497
292.658
292.771
292.871
292.978
293.079
293.222
293.447
293.719
294.062
294.487
294.997
295.665
296.431
297.226
298.001
298.617
298.936
0.376409
1.27638
2.98566
6.38285
12.1605
20.681
31.6802
44.3505
57.8282
71.47
84.9719
98.2091
111.149
123.731
135.972
147.845
159.336
170.418
181.081
191.369
201.195
210.57
219.508
227.989
235.975
243.416
250.295
256.633
262.452
267.735
272.417
276.468
279.91
282.803
285.241
287.289
288.96
290.26
291.275
291.961
292.364
292.665
292.864
293.007
293.16
293.309
293.447
293.586
293.74
293.938
294.19
294.507
294.888
295.356
295.965
296.663
297.403
298.122
298.685
298.939
0.376018
1.27467
2.98095
6.37249
12.142
20.6541
31.6481
44.3166
57.7956
71.4378
84.9426
98.1789
111.105
123.689
135.924
147.762
159.242
170.302
180.999
191.25
201.036
210.444
219.39
227.8
235.707
243.143
250.074
256.446
262.228
267.422
272.029
276.071
279.567
282.533
284.997
287.05
288.706
289.921
290.851
291.501
291.916
292.271
292.541
292.723
292.855
292.964
293.061
293.151
293.285
293.489
293.732
294.044
294.443
294.919
295.534
296.244
297.001
297.745
298.321
298.575
0.375628
1.2729
2.97575
6.35976
12.1158
20.6076
31.5754
44.216
57.6685
71.2887
84.7716
97.9909
110.914
123.48
135.709
147.561
159.055
170.096
180.775
191.057
200.834
210.222
219.199
227.656
235.591
243.035
249.974
256.362
262.177
267.416
272.074
276.154
279.666
282.633
285.118
287.179
288.834
290.121
291.138
291.837
292.267
292.594
292.817
292.979
293.146
293.301
293.433
293.56
293.7
293.883
294.109
294.395
294.748
295.192
295.768
296.423
297.132
297.833
298.374
298.578
0.375259
1.27129
2.97128
6.34989
12.0981
20.5816
31.544
44.1827
57.6362
71.2571
84.7432
97.9622
110.873
123.442
135.664
147.487
158.96
170.006
180.692
190.946
200.717
210.115
219.072
227.489
235.387
242.817
249.766
256.167
261.968
267.167
271.781
275.842
279.37
282.37
284.874
286.957
288.624
289.852
290.797
291.462
291.894
292.26
292.539
292.731
292.875
292.997
293.091
293.174
293.302
293.498
293.726
294.018
294.398
294.847
295.417
296.078
296.793
297.504
298.052
298.253
0.374894
1.26964
2.96646
6.33814
12.0739
20.5389
31.4772
44.0901
57.5187
71.1188
84.5839
97.7865
110.694
123.245
135.461
147.297
158.781
169.809
180.476
190.757
200.524
209.902
218.879
227.34
235.271
242.712
249.659
256.063
261.894
267.145
271.814
275.91
279.445
282.438
284.954
287.042
288.712
290.016
291.051
291.763
292.204
292.538
292.767
292.937
293.109
293.27
293.403
293.53
293.672
293.851
294.067
294.334
294.667
295.09
295.633
296.243
296.91
297.579
298.09
298.242
0.374547
1.26812
2.96226
6.32881
12.0571
20.514
31.4469
44.0576
57.4873
71.0882
84.5567
97.7595
110.656
123.21
135.421
147.23
158.696
169.731
180.404
190.658
200.423
209.813
218.77
227.192
235.094
242.527
249.484
255.896
261.713
266.93
271.564
275.648
279.197
282.216
284.746
286.858
288.543
289.793
290.76
291.444
291.89
292.261
292.541
292.736
292.889
293.022
293.12
293.199
293.323
293.515
293.735
294.014
294.377
294.801
295.334
295.954
296.628
297.307
297.83
297.983
0.374204
1.26658
2.95776
6.31789
12.0348
20.4745
31.3852
43.972
57.3784
70.9596
84.408
97.5949
110.488
123.024
135.229
147.05
158.525
169.542
180.197
190.473
200.233
209.605
218.579
227.038
234.972
242.416
249.368
255.78
261.622
266.887
271.574
275.692
279.247
282.258
284.795
286.905
288.594
289.917
290.972
291.7
292.153
292.496
292.728
292.904
293.081
293.242
293.374
293.501
293.645
293.824
294.032
294.287
294.606
295.013
295.533
296.113
296.752
297.402
297.902
298.022
0.373879
1.26516
2.95382
6.30913
12.0189
20.4509
31.3562
43.9408
57.3481
70.9302
84.3823
97.5699
110.453
122.993
135.193
146.99
158.448
169.473
180.136
190.387
200.147
209.533
218.487
226.91
234.818
242.26
249.222
255.64
261.468
266.703
271.362
275.472
279.042
282.075
284.624
286.757
288.462
289.735
290.726
291.432
291.893
292.271
292.551
292.747
292.909
293.05
293.151
293.229
293.351
293.541
293.76
294.033
294.385
294.797
295.31
295.907
296.562
297.231
297.756
297.893
0.373557
1.26372
2.94961
6.29893
11.9981
20.4142
31.2991
43.8614
57.2469
70.8103
84.2432
97.4154
110.295
122.817
135.011
146.819
158.284
169.291
179.936
190.207
199.961
209.328
218.297
226.754
234.69
242.14
249.097
255.514
261.364
266.642
271.348
275.489
279.063
282.091
284.646
286.775
288.481
289.823
290.899
291.642
292.108
292.461
292.698
292.876
293.058
293.221
293.352
293.478
293.626
293.808
294.016
294.268
294.584
294.988
295.501
296.074
296.71
297.37
297.893
298.021
0.373253
1.2624
2.94594
6.29076
11.9832
20.392
31.2715
43.8316
57.2179
70.7824
84.219
97.3924
110.263
122.79
134.979
146.765
158.215
169.232
179.885
190.132
199.889
209.27
218.221
226.645
234.56
242.009
248.977
255.399
261.236
266.488
271.171
275.307
278.896
281.942
284.508
286.66
288.382
289.677
290.693
291.421
291.895
292.28
292.56
292.756
292.927
293.074
293.176
293.256
293.379
293.57
293.792
294.067
294.419
294.833
295.347
295.945
296.606
297.295
297.859
298.023
0.37295
1.26104
2.94198
6.28118
11.9637
20.3577
31.2183
43.7577
57.1236
70.6705
84.0888
97.2473
110.114
122.624
134.807
146.602
158.058
169.057
179.692
189.956
199.707
209.069
218.032
226.487
234.426
241.883
248.844
255.264
261.119
266.411
271.137
275.302
278.894
281.935
284.504
286.651
288.374
289.733
290.829
291.589
292.069
292.433
292.672
292.853
293.038
293.202
293.333
293.461
293.613
293.801
294.014
294.271
294.596
295.009
295.533
296.12
296.776
297.47
298.051
298.225
0.372667
1.25981
2.93858
6.27361
11.9499
20.337
31.1924
43.7296
57.0963
70.6442
84.0663
97.2263
110.085
122.6
134.78
146.555
157.998
169.007
179.65
189.894
199.647
209.025
217.972
226.396
234.317
241.776
248.748
255.172
261.016
266.285
270.992
275.154
278.76
281.817
284.396
286.565
288.304
289.62
290.663
291.412
291.899
292.292
292.57
292.764
292.942
293.095
293.201
293.283
293.41
293.605
293.834
294.116
294.475
294.899
295.428
296.04
296.723
297.449
298.076
298.295
0.372381
1.25852
2.93483
6.26456
11.9316
20.3048
31.1427
43.6606
57.0082
70.5394
83.9441
97.0897
109.944
122.442
134.616
146.399
157.846
168.837
179.463
189.721
199.468
208.827
217.784
226.236
234.179
241.642
248.607
255.029
260.889
266.194
270.939
275.127
278.735
281.787
284.37
286.533
288.274
289.648
290.763
291.541
292.033
292.408
292.649
292.829
293.017
293.181
293.316
293.446
293.601
293.795
294.013
294.278
294.614
295.037
295.574
296.18
296.86
297.594
298.242
298.478
0.372118
1.25738
2.9317
6.25759
11.9188
20.2856
31.1185
43.6342
56.9825
70.5149
83.9235
97.0709
109.919
122.422
134.593
146.358
157.795
168.796
179.43
189.671
199.421
208.795
217.738
226.163
234.09
241.556
248.532
254.959
260.81
266.095
270.824
275.009
278.632
281.698
284.29
286.474
288.229
289.566
290.634
291.402
291.901
292.301
292.576
292.768
292.952
293.108
293.217
293.301
293.431
293.628
293.86
294.146
294.507
294.939
295.477
296.098
296.795
297.552
298.238
298.512
0.371847
1.25616
2.92814
6.24901
11.9014
20.2553
31.0718
43.5696
56.9
70.4167
83.8086
96.9421
109.785
122.272
134.437
146.208
157.647
168.632
179.249
189.502
199.245
208.6
217.552
226.001
233.947
241.416
248.385
254.808
260.675
265.99
270.753
274.961
278.585
281.648
284.243
286.421
288.18
289.569
290.701
291.495
291.998
292.383
292.626
292.805
292.993
293.155
293.292
293.423
293.576
293.771
293.989
294.257
294.594
295.019
295.559
296.172
296.863
297.621
298.322
298.607
0.371604
1.25512
2.92527
6.24263
11.8898
20.2376
31.0495
43.5451
56.8761
70.394
83.7898
96.9254
109.763
122.256
134.418
146.174
157.604
168.598
179.223
189.462
199.209
208.579
217.52
225.945
233.877
241.35
248.329
254.759
260.617
265.917
270.665
274.872
278.509
281.586
284.19
286.387
288.158
289.515
290.607
291.392
291.9
292.307
292.579
292.768
292.956
293.114
293.224
293.308
293.436
293.63
293.859
294.142
294.497
294.926
295.462
296.081
296.776
297.546
298.274
298.586
0.371346
1.25396
2.92187
6.23444
11.8732
20.2089
31.0055
43.4844
56.7987
70.3016
83.6816
96.8038
109.636
122.113
134.269
146.03
157.461
168.439
179.048
189.296
199.035
208.386
217.335
225.782
233.729
241.202
248.175
254.602
260.474
265.801
270.578
274.804
278.442
281.517
284.126
286.319
288.091
289.495
290.643
291.451
291.963
292.358
292.603
292.781
292.97
293.129
293.266
293.395
293.546
293.736
293.95
294.214
294.548
294.965
295.498
296.107
296.793
297.559
298.297
298.614
0.371123
1.253
2.91927
6.22865
11.8626
20.1928
30.985
43.4617
56.7766
70.2809
83.6647
96.7893
109.617
122.1
134.255
146.002
157.426
168.413
179.03
189.266
199.011
208.376
217.315
225.741
233.678
241.155
248.138
254.571
260.438
265.75
270.515
274.74
278.39
281.479
284.097
286.307
288.091
289.466
290.578
291.379
291.896
292.31
292.58
292.768
292.96
293.118
293.229
293.313
293.437
293.626
293.849
294.125
294.47
294.888
295.415
296.021
296.703
297.469
298.224
298.557
0.370875
1.25189
2.91599
6.2208
11.8468
20.1655
30.9434
43.4046
56.7038
70.1938
83.5627
96.6743
109.497
121.964
134.112
145.863
157.287
168.259
178.86
189.103
198.839
208.187
217.131
225.576
233.526
241.003
247.979
254.409
260.287
265.623
270.413
274.656
278.307
281.394
284.017
286.222
288.008
289.424
290.589
291.409
291.93
292.335
292.582
292.759
292.95
293.108
293.244
293.37
293.517
293.702
293.91
294.168
294.494
294.898
295.417
296.014
296.683
297.441
298.202
298.536
0.370674
1.25103
2.91366
6.21559
11.8373
20.1509
30.9246
43.3838
56.6835
70.175
83.5477
96.662
109.481
121.954
134.102
145.841
157.259
168.239
178.849
189.083
198.825
208.187
217.122
225.549
233.491
240.973
247.959
254.395
260.268
265.593
270.374
274.617
278.279
281.379
284.009
286.229
288.027
289.419
290.551
291.366
291.892
292.313
292.581
292.768
292.964
293.12
293.232
293.316
293.437
293.619
293.834
294.101
294.432
294.835
295.344
295.93
296.587
297.338
298.108
298.449
0.370434
1.24994
2.91049
6.20802
11.8221
20.1249
30.8852
43.3298
56.6148
70.0929
83.4512
96.5529
109.366
121.825
133.964
145.706
157.124
168.09
178.683
188.921
198.656
208
216.939
225.383
233.335
240.817
247.796
254.227
260.109
265.455
270.26
274.52
278.183
281.279
283.912
286.129
287.928
289.358
290.539
291.373
291.902
292.316
292.565
292.74
292.932
293.089
293.223
293.344
293.487
293.666
293.866
294.116
294.428
294.815
295.312
295.888
296.531
297.269
298.042
298.38
0.370255
1.24918
2.90842
6.20339
11.8136
20.1117
30.8682
43.3109
56.5964
70.076
83.4381
96.5428
109.353
121.818
133.958
145.69
157.103
168.077
178.68
188.911
198.651
208.01
216.942
225.369
233.316
240.804
247.792
254.228
260.107
265.445
270.243
274.503
278.176
281.283
283.923
286.153
287.965
289.374
290.527
291.357
291.89
292.317
292.582
292.768
292.965
293.12
293.231
293.315
293.431
293.603
293.808
294.061
294.373
294.756
295.241
295.8
296.425
297.151
297.926
298.266
0.370019
1.24812
2.90532
6.19606
11.799
20.0868
30.8307
43.2598
56.5315
69.9983
83.3468
96.4393
109.244
121.694
133.826
145.56
156.97
167.932
178.518
188.752
198.484
207.826
216.76
225.201
233.157
240.643
247.624
254.056
259.942
265.298
270.117
274.392
278.066
281.171
283.814
286.041
287.854
289.297
290.493
291.34
291.877
292.299
292.549
292.722
292.914
293.069
293.199
293.313
293.45
293.621
293.81
294.048
294.343
294.708
295.181
295.732
296.343
297.055
297.833
298.17
0.369865
1.24746
2.90352
6.19199
11.7914
20.075
30.8155
43.2427
56.515
69.9833
83.3356
96.4312
109.233
121.69
133.824
145.549
156.957
167.925
178.521
188.75
198.488
207.843
216.773
225.201
233.152
240.644
247.634
254.073
259.957
265.306
270.118
274.394
278.077
281.192
283.842
286.082
287.906
289.331
290.502
291.344
291.884
292.317
292.581
292.765
292.963
293.116
293.226
293.306
293.417
293.578
293.772
294.011
294.303
294.665
295.125
295.66
296.254
296.952
297.732
298.069
0.369628
1.24641
2.90048
6.18485
11.7773
20.0512
30.7798
43.1943
56.4535
69.9097
83.249
96.3327
109.129
121.571
133.697
145.422
156.827
167.783
178.364
188.593
198.322
207.661
216.593
225.033
232.989
240.477
247.462
253.897
259.788
265.152
269.98
274.269
277.954
281.069
283.723
285.961
287.787
289.24
290.448
291.308
291.853
292.283
292.536
292.708
292.901
293.057
293.184
293.292
293.422
293.585
293.766
293.993
294.274
294.622
295.073
295.605
296.189
296.877
297.664
298.002
0.369502
1.24586
2.89896
6.18135
11.7707
20.0408
30.7661
43.1789
56.4386
69.8965
83.2395
96.3265
109.121
121.57
133.698
145.416
156.819
167.782
178.372
188.599
198.335
207.686
216.614
225.044
232.997
240.492
247.485
253.927
259.818
265.176
270
274.289
277.984
281.11
283.772
286.023
287.859
289.298
290.485
291.342
291.89
292.331
292.598
292.782
292.983
293.138
293.248
293.327
293.433
293.587
293.771
293.999
294.277
294.623
295.065
295.583
296.152
296.829
297.621
297.959
0.369259
1.24479
2.89592
6.17426
11.7568
20.0172
30.7308
43.131
56.3777
69.8232
83.153
96.2279
109.016
121.45
133.569
145.286
156.684
167.636
178.21
188.435
198.162
207.498
216.426
224.865
232.823
240.315
247.303
253.742
259.638
265.009
269.847
274.149
277.848
280.975
283.641
285.892
287.73
289.193
290.412
291.285
291.84
292.281
292.541
292.714
292.911
293.07
293.196
293.3
293.425
293.584
293.762
293.984
294.257
294.595
295.033
295.553
296.116
296.786
297.589
297.934
0.36878
1.24289
2.89088
6.16287
11.7352
19.9824
30.6829
43.073
56.3148
69.7583
83.0917
96.1691
108.948
121.394
133.517
145.212
156.606
167.572
178.166
188.388
198.131
207.495
216.414
224.827
232.777
240.286
247.299
253.756
259.649
265.004
269.828
274.136
277.862
281.017
283.705
285.984
287.843
289.267
290.437
291.304
291.871
292.341
292.638
292.845
293.065
293.226
293.316
293.359
293.434
293.583
293.782
294.017
294.291
294.631
295.056
295.555
296.092
296.748
297.586
298.979
0.369131
1.24493
2.8977
6.17999
11.7699
20.0415
30.7685
43.181
56.4376
69.8905
83.2263
96.3055
109.108
121.539
133.659
145.394
156.804
167.756
178.325
188.553
198.274
207.603
216.546
225.004
232.967
240.454
247.435
253.876
259.78
265.16
270.004
274.304
277.992
281.11
283.772
286.014
287.843
289.315
290.552
291.427
291.971
292.4
292.633
292.775
292.953
293.103
293.229
293.344
293.477
293.621
293.759
293.939
294.182
294.487
294.896
295.407
295.945
296.606
297.43
298.748
0.368565
1.24262
2.89113
6.16395
11.7372
19.985
30.6849
43.0731
56.3127
69.7547
83.0861
96.1628
108.94
121.386
133.515
145.205
156.605
167.566
178.154
188.392
198.132
207.488
216.411
224.83
232.781
240.287
247.298
253.754
259.649
265.006
269.833
274.145
277.866
281.015
283.708
285.987
287.837
289.271
290.458
291.323
291.886
292.356
292.641
292.837
293.059
293.22
293.313
293.36
293.431
293.572
293.757
293.977
294.236
294.562
294.98
295.488
296.014
296.67
297.509
298.832
0.368646
1.24367
2.8957
6.17705
11.7663
20.038
30.7667
43.1813
56.4402
69.8946
83.2329
96.3127
109.118
121.547
133.666
145.4
156.809
167.765
178.333
188.557
198.277
207.608
216.551
225.006
232.968
240.455
247.439
253.882
259.786
265.163
270.003
274.305
277.995
281.111
283.776
286.023
287.851
289.314
290.545
291.416
291.958
292.391
292.622
292.753
292.926
293.072
293.185
293.282
293.397
293.535
293.669
293.836
294.068
294.368
294.768
295.278
295.807
296.471
297.317
298.63
0.368267
1.24214
2.8911
6.16482
11.7392
19.988
30.6877
43.0743
56.3114
69.7516
83.0807
96.1564
108.932
121.376
133.511
145.196
156.602
167.562
178.142
188.393
198.133
207.482
216.406
224.831
232.784
240.286
247.294
253.748
259.643
265.003
269.833
274.148
277.866
281.006
283.698
285.977
287.824
289.265
290.465
291.332
291.893
292.36
292.635
292.818
293.04
293.206
293.301
293.352
293.427
293.571
293.75
293.96
294.215
294.537
294.957
295.482
296.02
296.69
297.543
298.847
0.368167
1.24244
2.89374
6.1741
11.7625
20.0341
30.7641
43.1808
56.4422
69.8983
83.2395
96.3201
109.129
121.557
133.675
145.407
156.815
167.772
178.34
188.562
198.28
207.612
216.555
225.009
232.969
240.457
247.442
253.887
259.791
265.166
270.004
274.306
277.999
281.113
283.78
286.031
287.86
289.316
290.54
291.407
291.948
292.382
292.612
292.739
292.909
293.051
293.151
293.233
293.333
293.465
293.597
293.76
293.986
294.286
294.687
295.204
295.737
296.408
297.264
298.567
0.367887
1.24144
2.89073
6.16535
11.7412
19.9914
30.6915
43.0767
56.3111
69.749
83.0757
96.1499
108.923
121.366
133.506
145.187
156.6
167.559
178.132
188.393
198.133
207.476
216.402
224.831
232.786
240.287
247.291
253.743
259.638
264.999
269.832
274.149
277.865
280.998
283.687
285.967
287.81
289.257
290.469
291.338
291.897
292.362
292.629
292.801
293.016
293.188
293.287
293.344
293.426
293.573
293.748
293.948
294.198
294.52
294.942
295.479
296.028
296.707
297.561
298.847
0.367682
1.24123
2.89184
6.17118
11.7585
20.0296
30.7607
43.1793
56.4434
69.9015
83.2458
96.3277
109.14
121.568
133.685
145.416
156.822
167.778
178.345
188.568
198.283
207.616
216.56
225.012
232.971
240.457
247.445
253.892
259.796
265.17
270.005
274.307
278.004
281.116
283.784
286.041
287.869
289.32
290.54
291.403
291.942
292.375
292.605
292.727
292.895
293.036
293.126
293.192
293.278
293.406
293.536
293.691
293.912
294.214
294.619
295.142
295.683
296.361
297.218
298.508
0.367429
1.24051
2.88996
6.1654
11.7428
19.9949
30.6962
43.0804
56.3121
69.7474
83.0713
96.1435
108.915
121.355
133.5
145.176
156.596
167.559
178.124
188.393
198.133
207.471
216.398
224.832
232.788
240.286
247.288
253.738
259.634
264.996
269.83
274.148
277.863
280.989
283.675
285.957
287.799
289.25
290.469
291.34
291.899
292.361
292.623
292.785
292.994
293.168
293.271
293.335
293.426
293.578
293.748
293.938
294.186
294.512
294.941
295.486
296.047
296.74
297.599
298.876
0.367174
1.24001
2.88997
6.16835
11.7546
20.0249
30.7565
43.1767
56.4436
69.904
83.2517
96.3354
109.152
121.58
133.697
145.426
156.829
167.783
178.35
188.573
198.287
207.619
216.563
225.015
232.972
240.459
247.448
253.897
259.801
265.173
270.006
274.309
278.009
281.121
283.789
286.051
287.879
289.326
290.542
291.404
291.939
292.37
292.599
292.719
292.885
293.026
293.106
293.157
293.233
293.358
293.484
293.632
293.849
294.152
294.561
295.088
295.635
296.322
297.178
298.452
0.366904
1.23937
2.88875
6.16484
11.7439
19.9983
30.7016
43.0856
56.3146
69.7469
83.0677
96.1376
108.906
121.343
133.491
145.164
156.592
167.559
178.118
188.393
198.134
207.467
216.396
224.834
232.79
240.287
247.286
253.735
259.63
264.993
269.828
274.146
277.86
280.98
283.663
285.945
287.789
289.243
290.466
291.342
291.9
292.359
292.616
292.771
292.976
293.15
293.256
293.326
293.427
293.583
293.745
293.928