/*--------------------------------*- C++ -*----------------------------------*\
| =========                 |                                                 |
| \\      /  F ield         | OpenFOAM: The Open Source CFD Toolbox           |
|  \\    /   O peration     | Version:  5.x                                   |
|   \\  /    A nd           | Web:      www.OpenFOAM.org                      |
|    \\/     M anipulation  |                                                 |
\*---------------------------------------------------------------------------*/
/*   Windows 32 and 64 bit porting by blueCAPE: http://www.bluecape.com.pt   *\
|  Based on Windows porting (2.0.x v4) by Symscape: http://www.symscape.com   |
\*---------------------------------------------------------------------------*/
FoamFile
{
    version     2.0;
    format      ascii;
    class       volScalarField;
    location    "0.01";
    object      p;
}
// * * * * * * * * * * * * * * * * * * * * * * * * * * * * * * * * * * * * * //

dimensions      [1 -1 -2 0 0 0 0];

internalField   nonuniform List<scalar> 
10000
(
99845.8
99505.5
98811.1
97450.4
95164.7
91902.1
87889
83509.9
79121.6
74911
70953.8
67254.4
63810.6
60601.6
57625.6
54859.4
52298.4
49928.6
47733.2
45710.7
43849.2
42138.5
40572.4
39144.2
37850
36685.4
35644.4
34720.7
33909.4
33206.6
32607.1
32111.2
31700.3
31366.6
31103.8
30896.4
30741.3
30616.6
30540.6
30482
30444.5
30425.5
30403
30392
30382.7
30366.6
30354.4
30330.7
30301.8
30258.1
30198.3
30125.8
30032.5
29925.4
29820.4
29724.4
29678.8
29664.8
29644.7
29620.7
99846.3
99507.7
98818.2
97468
95199.1
91957.8
87965.9
83604.1
79228.1
75025.9
71074.8
67380
63939.8
60732.8
57759
54993.8
52432.7
50061.8
47865.5
45841.9
43977.8
42264.2
40694.6
39262.6
37963.2
36792.6
35745.2
34814.7
33995.9
33286.1
32676.6
32170.8
31751.5
31409.5
31137.8
30924.6
30764.4
30633.1
30558.9
30492
30453.5
30432.4
30406.7
30398
30383.1
30374.5
30360.8
30336.9
30312.5
30274
30217.4
30150.3
30064.1
29961.8
29857.1
29746.5
29687.5
29664.3
29638.4
29610.6
99846.3
99508
98818.9
97469.3
95201.3
91960.6
87969.1
83607.2
79231.1
75028.5
71077.2
67382.1
63941.5
60735.3
57760.4
54995.3
52433.9
50064.9
47867.5
45842.3
43978.8
42264.9
40694.9
39262
37962.8
36792.3
35745.1
34814.2
33995.1
33283.7
32675.9
32170.7
31752.7
31410.4
31139.7
30926.3
30765.9
30633.9
30553.5
30489.6
30450.1
30428.3
30405.4
30394
30382.2
30370.9
30354
30331.9
30307.3
30269.6
30214.2
30147.9
30064.5
29962.9
29861.1
29756.2
29693.1
29662.9
29620.7
29569.2
99846.7
99509.8
98824.9
97484.4
95231.4
92010
88038.1
83692.4
79327.9
75133.7
71188.3
67497.8
64061.1
60856
57884.1
55120.2
52558.2
50187.4
47989.9
45965
44098.8
42382.6
40809.8
39373.9
38069.7
36893.5
35840.2
34903.6
34077.6
33360.8
32741.7
32227.5
31801.5
31451.3
31171.2
30954.6
30788.1
30651.3
30575.4
30501.7
30460.4
30438.6
30410.9
30400.7
30388.2
30379.4
30366.2
30343.3
30323.2
30288.5
30237.4
30168.8
30088.3
29987.9
29884.6
29778.5
29697.4
29662.8
29629.6
29593.2
99846.8
99510.3
98826.1
97486.7
95235.2
92015
88043.7
83698.1
79333.3
75138.5
71192.7
67501.7
64064.2
60860.8
57886.8
55122.6
52561.2
50192.5
47993.6
45966.1
44100.5
42383.8
40810.3
39373.1
38069.1
36893.4
35840.4
34903.2
34076.8
33357.3
32741.3
32226.2
31802.9
31452.4
31173.1
30952.6
30789
30649.6
30565.8
30500.6
30454.7
30431.7
30408.6
30395.9
30382.3
30370.6
30357.2
30331.8
30312.1
30278.3
30229.9
30167.4
30089.1
29991.1
29891.6
29788.1
29703.5
29659.1
29623
29613.6
99847.1
99511.8
98831.2
97499.8
95261.6
92058.9
88105.7
83775.3
79421.7
75234.9
71294.9
67608.5
64175
60971.7
58001.6
55238.7
52676.2
50305.1
48107
46081
44212.5
42493.9
40918.1
39478.4
38169.9
36988.3
35929.5
34987.1
34155
33431.2
32803
32284.6
31847.7
31491.9
31204
30983.3
30811
30667.6
30588.5
30509
30466.8
30444.3
30414.7
30403.3
30391.6
30383.2
30370.9
30349.8
30331.5
30298.1
30250.5
30187.9
30106.7
30013.5
29916.7
29814
29718.5
29667.3
29637
29638.5
99847.2
99512.4
98832.7
97502.9
95266.7
92065.6
88113.3
83782.9
79429
75241.4
71300.8
67613.7
64179.2
60978.3
58005.3
55242.1
52680.8
50312
48111.9
46082.2
44214.8
42495.7
40918.9
39477.9
38169.4
36988.9
35930.6
34987.4
34154.3
33427.9
32802.8
32281.8
31848.7
31492.3
31205.1
30978.8
30811.7
30663.3
30578.9
30509.4
30459.7
30438.4
30410.3
30398.3
30381.9
30369.2
30357.3
30335
30317.1
30287
30243.7
30184.2
30108.8
30017.5
29922.7
29816
29725.5
29668.3
29633.2
29623
99847.5
99513.7
98837.1
97514.3
95289.8
92104.6
88169.1
83853.1
79509.6
75329.9
71394.9
67712.3
64281.8
61080.6
58112.1
55349.9
52787.3
50415.7
48217.3
46189.9
44319.2
42598.4
41019.8
39576.8
38264.2
37077.7
36013.7
35065.7
34227.9
33497.5
32861.8
32337.2
31892.4
31530.8
31236.5
31007.9
30833
30684.4
30600.9
30517
30473.9
30449.1
30418.3
30406.7
30393.9
30386
30374.3
30356.4
30338.7
30305
30260.3
30204
30122.8
30040.4
29942.1
29840.6
29749
29680.9
29634.6
29606.2
99847.6
99514.4
98838.9
97517.9
95296
92112.7
88178.2
83862.1
79518.3
75337.7
71402
67718.5
64286.9
61088.3
58116.4
55354.3
52793.4
50424.1
48222.8
46191.3
44322.1
42600.6
41020.8
39576.6
38264.1
37079
36015.6
35066.9
34227.6
33495
32860.8
32334.9
31892.5
31530.3
31235.5
31004.4
30833.5
30677.4
30590.4
30517
30462.4
30443.3
30413.4
30400.3
30383.7
30371.3
30360
30338.8
30320.5
30295.1
30255.4
30201.5
30124.7
30041.3
29944.8
29842.1
29751.1
29680.4
29628.2
29601.2
99847.9
99515.6
98842.7
97527.8
95316.4
92147.5
88228.4
83926
79592.1
75419
71488.8
67809.8
64382
61182.4
58215.7
55454.1
52891.6
50519.2
48321
46292.2
44419.5
42696.5
41115.4
39669.4
38352.9
37161.8
36092.9
35140
34296.9
33560.6
32918.3
32386.6
31935.2
31567.9
31267.7
31032.8
30853.7
30703.3
30614.3
30527.3
30478.8
30454.3
30422.6
30408
30393.3
30384.3
30375.7
30358.7
30343.1
30312
30269.6
30217.7
30138.9
30061.6
29965.6
29865.4
29773.5
29696.9
29637
29620.8
99848
99516.3
98844.6
97531.8
95323.2
92156.6
88238.7
83936.1
79601.9
75427.8
71496.7
67816.7
64387.9
61191.3
58220.7
55459.3
52899
50529
48326.8
46293.7
44423
42699.4
41116.8
39669.3
38353.3
37164
36095.8
35141.9
34296.6
33558.5
32916.4
32384.9
31935
31566.9
31265.3
31029
30853.2
30691
30601.8
30524.4
30467.4
30447.9
30416.5
30402.6
30386.1
30375.3
30364
30344.1
30325.7
30301.8
30264.7
30216.8
30140.7
30062.5
29971.8
29868.6
29775.2
29696.2
29639.1
29628.6
99848.2
99517.3
98848
97540.5
95341.2
92187.6
88284
83994.3
79669.5
75502.6
71576.9
67901.2
64476.2
61278.1
58313.1
55551.5
52989.5
50616.3
48418.8
46388.4
44513.6
42788.8
41205.5
39756.5
38436.3
37241.1
36167.8
35210.2
34362.1
33620.2
32972.3
32433.5
31976
31602.6
31297.7
31058.1
30873.5
30718.6
30624.3
30535.5
30482.3
30458.8
30426.1
30408.3
30391.8
30381.1
30373.8
30359.9
30345.4
30317.5
30277.7
30229.8
30155.7
30079.7
29993.2
29889.3
29794.5
29712.4
29653.7
29631
99848.4
99518
98850
97544.8
95348.5
92197.5
88295.1
84005.3
79680.1
75512.1
71585.4
67908.7
64482.6
61288.1
58318.5
55557.8
52998.2
50627.2
48424.3
46390
44517.8
42792.2
41207
39756.7
38437.2
37243.8
36171.3
35212.6
34362.2
33618.5
32969.5
32432.1
31975.8
31602.2
31293.8
31053.6
30871.4
30705.5
30614.9
30532.5
30473.2
30451.7
30419.6
30405
30388.2
30377
30365.7
30347.3
30329.7
30307.2
30272.9
30230
30158
30081.8
29998.4
29891.4
29796.2
29713.7
29655.7
29620.8
99848.6
99518.9
98852.9
97552.5
95364.5
92225.1
88336
84058.3
79742.1
75581.1
71659.5
67987.1
64564.5
61368.4
58404.5
55642.9
53081.6
50707.4
48510.8
46478.8
44602
42875.6
41290.3
39838.5
38514.9
37315.8
36238.4
35276.3
34423.9
33676.8
33024
32478
32014.7
31635.5
31327.3
31081.7
30891.8
30732
30633.6
30544.4
30487.8
30463.1
30428.6
30410.6
30397.9
30388.8
30380.5
30362.9
30348.2
30322.4
30284.9
30241.5
30172.7
30096.5
30016.5
29910
29814.1
29729.7
29667.2
29628.3
99848.7
99519.6
98854.9
97556.8
95372
92235.5
88347.8
84069.9
79753.2
75591.1
71668.5
67994.8
64571.2
61378.8
58410.2
55650.1
53091.4
50719.1
48515.9
46480.4
44606.6
42879.2
41291.7
39838.8
38516.1
37319
36242.4
35279.3
34424.3
33675.5
33020.7
32476.9
32014.8
31635.8
31321.7
31077.3
30890.3
30721.6
30627.4
30540.7
30478.6
30455.6
30423.2
30406.4
30385.8
30374.3
30363
30346.5
30330.4
30312.1
30281.1
30241.7
30174.6
30097.2
30018.6
29911.6
29817.1
29733.5
29669.7
29632
99848.9
99520.4
98857.6
97563.7
95386.3
92260.3
88384.8
84118.3
79810.1
75654.6
71737
68067.6
64647.3
61452.7
58490.2
55728.6
53168.2
50792.9
48597.3
46563.6
44685.1
42957.2
41369.9
39915.5
38588.9
37386.2
36304.9
35338.9
34482.1
33730.3
33072.9
32520.3
32051.6
31667.1
31354.8
31103.5
30911.5
30747
30645.7
30554.7
30492.9
30466.6
30431.8
30414.1
30403.1
30391.2
30381.8
30367.5
30351.4
30327.9
30291.9
30251
30187.6
30110.2
30034.3
29929.1
29834.7
29750.2
29683.1
29642.4
99849.1
99521.1
98859.6
97568
95393.9
92270.9
88396.9
84130.2
79821.6
75664.9
71746.3
68075.4
64654.2
61463
58496.1
55736.6
53178.9
50805.1
48601.7
46565.1
44690.1
42960.7
41371.1
39915.9
38590.3
37389.8
36309.2
35342.2
34482.8
33729.3
33069.3
32519.8
32052.1
31667.7
31349.1
31100.6
30908.1
30740.2
30639.9
30549.5
30484.1
30459.8
30426.6
30408.3
30388.4
30377.8
30366.4
30346.2
30331.8
30316.6
30290.4
30250.5
30187.5
30109.1
30035.4
29932.3
29839.8
29755.1
29686.9
29648.3
99849.2
99521.9
98862
97574.1
95406.7
92293.3
88430.5
84174.5
79873.9
75723.6
71809.7
68143.1
64724.9
61531.1
58570.5
55808.5
53249.7
50873
48678.7
46643.2
44762.7
43033.7
41444.6
39987.9
38658.4
37452.5
36367.6
35397.8
34537.2
33781
33119.4
32560.7
32086.7
31697.2
31381
31125.5
30931.1
30760.8
30657.6
30564
30497.6
30470.1
30435.1
30415.2
30399.7
30385.7
30375.1
30367.1
30352.8
30331.4
30297.7
30259.3
30198.2
30121
30050.4
29950
29857.3
29770.6
29699.8
29659.4
99849.4
99522.5
98863.9
97578.4
95414.3
92304
88442.8
84186.7
79885.6
75734.1
71819.1
68151
64732
61541.8
58576.8
55817.6
53260.9
50885.5
48682.4
46644.7
44768.2
43037.4
41445.9
39988.5
38660
37456.2
36372.1
35401.4
34538
33780.2
33115.6
32560.6
32087.6
31697.9
31375.5
31122.9
30925.7
30752.9
30650.7
30558
30489.8
30463.9
30429.4
30409.9
30393.7
30381.4
30370.4
30348.9
30338.6
30322.9
30293.5
30256.7
30197.4
30120.7
30052.5
29954.9
29863.2
29775.6
29703.5
29663.3
99849.5
99523.2
98866.1
97583.9
95425.9
92324.2
88473.3
84227.2
79933.7
75788.3
71877.9
68213.9
64797.8
61605.4
58646
55883.7
53326.2
50948.1
48755.1
46718
44835.8
43105.7
41514.8
40056
38724.1
37515.1
36426.8
35453.4
34589.1
33828.9
33163.3
32598.8
32120
31725.6
31406.2
31146.5
30945.7
30774.3
30667
30571.7
30502.8
30473.5
30437.3
30416.1
30398.7
30384.2
30373.6
30363.8
30354.8
30335.3
30302.7
30265.8
30206.1
30133.3
30066.7
29971.5
29879.1
29789.2
29714
29670.7
99849.6
99523.8
98867.9
97588.1
95433.3
92334.8
88485.6
84239.4
79945.4
75798.8
71887.3
68221.7
64804.9
61616.6
58652.6
55893.2
53337.8
50960.7
48758
46719.5
44841.5
43109.5
41516.3
40056.7
38725.7
37518.8
36431.4
35457
34590
33828.2
33159.5
32599.6
32121.1
31726.4
31401
31143.5
30944.4
30764
30661
30566.6
30495.8
30468
30432.3
30411.6
30393.7
30380
30370.3
30352.2
30342.8
30326.5
30295.3
30260
30204.9
30133.6
30068.5
29975.5
29883.6
29793.1
29717
29674.6
99849.8
99524.5
98869.9
97593.1
95443.8
92353.1
88513.4
84276.5
79989.7
75848.9
71941.8
68280.4
64866.2
61675.5
58716.7
55954.4
53398.2
51018.6
48826.8
46788.1
44904.5
43173.2
41580.7
40120
38785.8
37573.9
36482.5
35505.7
34638
33874
33204.6
32635.3
32151.4
31752.5
31430
31166.2
30959.1
30786.3
30675.4
30578.2
30508.3
30476.6
30439.6
30418.3
30406
30390.1
30378.2
30366
30354.4
30337.7
30307.7
30273.7
30215.8
30148.9
30080.4
29989.8
29897.2
29805.1
29726.4
29681.3
99849.9
99525.1
98871.7
97597.1
95451
92363.5
88525.5
84288.7
80001.4
75859.4
71951.2
68287.9
64873.1
61686.7
58723.5
55964.1
53409.9
51031.1
48829.3
46789.7
44910.3
43177.3
41582.4
40120.8
38787.3
37577.7
36487.1
35509.4
34639.1
33873.4
33201.3
32635.9
32152.7
31753.6
31425.3
31163.6
30958.1
30778.4
30671
30574.2
30502.2
30472.1
30435.3
30414
30394.8
30383.1
30372.9
30352.8
30343.8
30328
30299.2
30264.4
30213.2
30146
30081.8
29992.1
29900.8
29808.8
29729.7
29685.1
99850
99525.7
98873.5
97601.7
95460.6
92380.2
88550.9
84322.8
80042.3
75905.7
72001.7
68342.7
64930.3
61740.9
58783.1
56020.5
53465.8
51084.6
48894
46853.9
44968.8
43236.4
41642.5
40180
38843.9
37629.3
36534.9
35555
34684.2
33916.6
33243.2
32669.7
32181.2
31777.9
31452.5
31184.1
30973.4
30798.9
30685.3
30585
30513.8
30479.5
30442
30420.8
30411.6
30397.5
30383.1
30369.1
30354
30339.5
30311.2
30278.4
30223.5
30163.8
30092.4
30005.2
29912.8
29819.6
29738
29690.3
99850.2
99526.3
98875.2
97605.5
95467.5
92390.2
88562.8
84334.7
80053.7
75916.1
72011
68349.9
64937
61751.6
58789.8
56030.3
53477.5
51096.9
48896.3
46855.7
44974.8
43240.7
41644.4
40181
38845.4
37633.1
36539.4
35558.7
34685.5
33916
33240.6
32670.2
32182.7
31779.2
31448.2
31182.3
30973.5
30794.8
30682.2
30581.4
30508.9
30475.8
30438.3
30415.9
30396.8
30382.3
30373
30355.6
30346.8
30331
30302.5
30270.2
30221.1
30157.3
30092.1
30006.1
29916.5
29822.9
29741
29693.2
99850.3
99526.8
98876.9
97609.8
95476.3
92405.6
88586.1
84366.1
80091.5
75959
72057.9
68401.1
64990.3
61801.7
58845.3
56082.3
53529.4
51146.6
48957
46915.6
45029.2
43295.8
41700.5
40236.4
38898.3
37681.3
36584.1
35601.5
34727.8
33956.6
33280.1
32702.1
32209.4
31802.1
31473.4
31201.3
30989.2
30812.9
30697.4
30591.7
30519.2
30482.2
30444.3
30422.5
30409.7
30395.6
30382
30369.9
30355.2
30341
30313.4
30282.5
30230.8
30174.7
30102.2
30017.4
29927.4
29832.9
29748.1
29696.8
99850.4
99527.3
98878.5
97613.4
95482.9
92415.2
88597.7
84377.8
80102.7
75969.1
72067
68408
64996.9
61812.3
58852.1
56092.2
53540.8
51158.5
48959.3
46917.7
45035.3
43300.3
41702.7
40237.5
38900.2
37685.1
36588.6
35605
34728.8
33956.2
33277.7
32702.6
32211.1
31803.2
31470
31200.3
30989.8
30810.5
30691.5
30588.2
30515.2
30479.4
30441
30417.3
30400.3
30386.6
30375
30355.2
30347.3
30333
30307.3
30276.1
30228.7
30167.5
30101.7
30018.5
29930.6
29836.1
29750.1
29698.1
99850.5
99527.9
98880.1
97617.3
95491
92429.4
88619.1
84406.8
80137.7
76009
72110.6
68455.8
65046.7
61858.9
58903.7
56140.2
53589
51204.8
49015.7
46973.5
45085.9
43351.3
41754.8
40289.4
38949.3
37730.2
36630.5
35645.1
34768.7
33994.3
33314.6
32732.7
32236.1
31825.2
31492.8
31218.4
31006.1
30824
30706.8
30597.5
30524.1
30485.2
30446
30423.9
30407.9
30391.5
30378
30371.2
30356.5
30342.3
30316.3
30286.1
30237.9
30183.1
30111.3
30028.7
29940.7
29845.3
29756.3
29700.8
99850.6
99528.4
98881.5
97620.7
95497.2
92438.5
88630.2
84418
80148.6
76018.8
72119.5
68462.5
65053
61869.3
58910.5
56150.2
53600.1
51216.4
49018.6
46976
45092
43356.1
41757.2
40290.5
38951.4
37734
36634.9
35648.5
34769.8
33994.1
33312.9
32733.3
32237.9
31825.9
31490.1
31218
31002.8
30818.6
30700.4
30594.5
30521.1
30482.8
30443.1
30419
30400.4
30386.6
30374.9
30354.7
30348.3
30335.2
30311.4
30280.8
30235.4
30176
30110.8
30029.7
29943.1
29848.2
29758
29701.1
99850.7
99528.8
98883
97624.4
95504.8
92451.7
88650
84444.8
80181
76055.8
72159.9
68507.1
65099.5
61912.6
58958.4
56194.7
53645
51259.4
49070.5
47027.8
45139.2
43403.4
41805.9
40339.1
38997.2
37776.2
36674.1
35686.2
34807.2
34029.8
33347
32761.5
32261.2
31846.8
31511.3
31235.1
31016.8
30836.5
30712.8
30602.6
30528.5
30488.1
30447.1
30425.1
30407.6
30389.7
30375.5
30368.6
30359.5
30344.2
30318.9
30289.4
30244
30190.8
30120
30038.9
29952.1
29856.5
29763.9
29703.5
99850.9
99529.3
98884.4
97627.6
95510.6
92460.3
88660.6
84455.6
80191.4
76065.3
72168.6
68513.5
65105.6
61922.9
58965.2
56204.6
53655.6
51270.6
49074
47030.5
45145.2
43408.4
41808.4
40340.4
38999.5
37779.9
36678.3
35689.4
34808.3
34029.7
33346.1
32762.1
32263.2
31847.4
31509.4
31234.3
31015.2
30825.8
30708.2
30600.3
30526.1
30486.1
30444.7
30420.7
30402.9
30386.8
30374.8
30356.8
30350.1
30337.8
30314.9
30284.7
30241.3
30183.3
30119.4
30039.8
29954
29859.1
29765.7
29703.8
99851
99529.8
98885.8
97631
95517.7
92472.5
88679
84480.5
80221.5
76099.7
72206.2
68555.1
65149
61963.2
59009.7
56246.2
53697.4
51310.7
49121.9
47078.6
45189.2
43452.6
41854
40385.9
39042.3
37819.3
36715
35724.7
34843.3
34063.1
33377.4
32788.7
32285
31867.1
31529.3
31250.1
31026.2
30840.7
30718.4
30607.6
30532.6
30491
30448.2
30426.1
30410.2
30391
30376.3
30367.9
30360.4
30345.8
30321.1
30292.2
30249.2
30197
30128
30048.4
29962.3
29866.8
29771.6
29706.2
99851.1
99530.2
98887.1
97633.9
95523.2
92480.7
88689
84490.8
80231.6
76108.9
72214.6
68561.3
65154.9
61973.2
59016.4
56255.7
53707.6
51321.4
49126
47081.4
45195.1
43457.4
41856.5
40387.3
39044.7
37823
36719.1
35727.8
34844.4
34063.1
33377.3
32789.3
32287
31867.5
31528.2
31249.2
31024.2
30839
30716.4
30606.1
30530.6
30489.4
30446.3
30422.5
30405.4
30390.1
30375.5
30358.7
30351.9
30339.9
30317.3
30288.2
30246.4
30190.2
30127.3
30049.4
29963.9
29869.4
29773.8
29706.6
99851.2
99530.6
98888.4
97637.2
95529.8
92492
88706.1
84513.9
80259.5
76140.8
72249.5
68600.1
65195.3
62010.6
59057.9
56294.7
53746.6
51358.9
49170
47126.2
45236.1
43498.9
41899
40429.9
39084.6
37859.8
36753.5
35760.9
34877.2
34094.4
33406.3
32814.3
32307.4
31886.2
31546.4
31264
31035
30846.3
30724.7
30612.8
30536.4
30493.9
30449.5
30427.3
30412.7
30394.6
30380.5
30370.1
30360.7
30347.2
30322.2
30294.8
30253.8
30202.4
30135.4
30057.4
29971.6
29876.6
29779.7
29708.9
99851.2
99531
98889.6
97639.9
95534.9
92499.6
88715.5
84523.7
80269.1
76149.6
72257.6
68606.1
65201
62020.2
59064.4
56303.6
53756.3
51369
49174.7
47129.1
45241.9
43503.4
41901.4
40431.2
39086.9
37863.4
36757.4
35763.8
34878.3
34094.5
33406.5
32815
32309.5
31886.5
31545.7
31263.2
31034.6
30845.7
30724
30611.9
30534.7
30492.8
30448.1
30424
30408.3
30393.3
30378.3
30360.7
30353.7
30341.4
30318.6
30291.4
30251.1
30196.7
30134.9
30058.4
29973
29879
29782.2
29709.2
99851.3
99531.4
98890.8
97643
95541.1
92510.3
88731.5
84545.2
80295.1
76179.3
72290.2
68642.3
65238.8
62055
59103
56340
53792.7
51404.1
49215
47171
45280.1
43542.2
41941.3
40470.6
39124.1
37897.8
36789.5
35794.9
34909
34123.7
33433.5
32838.4
32328.5
31904.2
31562.1
31276.9
31046.5
30856.5
30733
30618.2
30539.9
30496.9
30450.8
30428.6
30414.1
30398.1
30387.8
30371.8
30361.2
30348.2
30323.1
30296.9
30257.8
30207.6
30142.5
30065.9
29979.8
29885.9
29788.1
29711.4
99851.4
99531.8
98891.9
97645.5
95545.8
92517.4
88740.3
84554.5
80304.2
76187.8
72298
68648.1
65244.3
62064.3
59109.3
56348.3
53801.8
51413.7
49220.2
47173.9
45285.7
43546.5
41943.6
40472
39126.5
37901.2
36793.3
35797.7
34910.2
34124
33433.7
32839.2
32330.6
31904.5
31561.8
31276.6
31047.1
30857.4
30733
30617.6
30538.6
30496.2
30449.8
30425.7
30410.6
30395.3
30377.5
30361.6
30354.7
30342.4
30319.8
30294
30255.2
30202.9
30142.1
30066.8
29980.9
29888.4
29790.8
29711.7
99851.5
99532.2
98893.1
97648.4
95551.7
92527.4
88755.3
84574.5
80328.4
76215.4
72328.3
68681.8
65279.4
62096.6
59145.3
56382.1
53835.8
51446.4
49257.2
47213
45321.4
43582.6
41980.8
40508.6
39161
37933.3
36823.4
35826.8
34938.9
34151.3
33458.9
32861.2
32348.3
31921.3
31576.9
31289.5
31058.8
30869.9
30741.9
30623.4
30543.3
30499.9
30452.2
30430.1
30415
30399.2
30390
30373.2
30361.9
30349.1
30323.9
30298.5
30261.1
30212.5
30149.3
30073.9
29987.2
29895
29796.5
29713.8
99851.6
99532.6
98894.1
97650.7
95556
92534
88763.5
84583.3
80337.1
76223.5
72335.7
68687.4
65284.8
62105.4
59151.4
56390
53844.5
51455.5
49262.9
47216.1
45326.8
43586.8
41983.1
40510.3
39163.5
37936.7
36827
35829.5
34940.2
34151.8
33459.2
32862
32350.4
31921.6
31576.8
31289.4
31059.2
30867.1
30740.8
30622.8
30542.3
30499.4
30451.4
30427.5
30412.1
30396
30379.9
30361.9
30355
30342.8
30320.9
30296.1
30258.9
30208.4
30148.7
30074.6
29988.3
29897.6
29799.4
29714.2
99851.7
99532.9
98895.2
97653.5
95561.6
92543.5
88777.5
84602
80359.7
76249.3
72364
68718.8
65317.6
62135.4
59184.9
56421.4
53876.3
51486.2
49296.8
47252.5
45360.1
43620.5
42017.7
40544.5
39195.7
37966.7
36855.1
35856.7
34966.9
34177.3
33482.7
32882.7
32367
31937.5
31590.8
31301.5
31069.6
30882.6
30749.7
30628.2
30546.7
30502.9
30453.6
30431.5
30415.4
30399.1
30388.3
30373.2
30362.1
30349.7
30324.8
30299.8
30264.1
30217.1
30155.3
30081.2
29994
29903.9
29804.9
29716.1
99851.7
99533.2
98896.2
97655.6
95565.6
92549.5
88785.2
84610.2
80367.9
76256.9
72371.1
68724.2
65322.8
62143.9
59190.8
56429
53884.5
51494.7
49302.8
47255.5
45365.3
43624.5
42019.9
40546.3
39198.3
37970
36858.6
35859.3
34968.2
34177.8
33483.1
32883.5
32369
31937.8
31590.8
31301.5
31069.5
30874.8
30748
30627.7
30545.9
30502.6
30452.9
30429.1
30413
30396.1
30381
30362.1
30355.1
30343.2
30322
30297.9
30262.2
30213.4
30154.3
30081.6
29995.2
29906.4
29807.7
29716.3
99851.8
99533.6
98897.2
97658.2
95570.9
92558.5
88798.4
84627.7
80388.9
76281
72397.4
68753.4
65353.3
62171.8
59222.1
56458.4
53914.3
51523.5
49334.1
47289.5
45396.4
43656
42052.6
40578.5
39228.4
37998.1
36885
35884.8
34993.2
34201.6
33504.9
32902.9
32384.6
31952.8
31603.7
31312.9
31079.1
30892.1
30756.3
30632.7
30549.9
30505.8
30454.9
30432.9
30415.7
30398
30384.4
30371.4
30362.5
30350.3
30325.5
30301
30266.8
30221.3
30160
30087.6
30000.6
29912.4
29812.9
29717.9
99851.9
99533.9
98898.1
97660.1
95574.5
92564
88805.4
84635.4
80396.7
76288.3
72404.2
68758.7
65358.3
62180
59227.7
56465.6
53921.9
51531.5
49340
47292.4
45401.4
43659.9
42054.7
40580.3
39231
38001.3
36888.2
35887.4
34994.5
34202.3
33505.5
32903.8
32386.6
31953.1
31603.9
31313
31078.8
30883.4
30754.6
30632.2
30549.4
30505.6
30454.1
30430.7
30413.7
30395.6
30381.2
30363.9
30355
30343.9
30322.9
30299.4
30265.1
30217.9
30158.8
30088
30001.9
29914.7
29815.3
29717.9
99852
99534.2
98899.1
97662.6
95579.5
92572.5
88817.9
84651.8
80416.4
76310.7
72428.7
68785.9
65386.8
62205.9
59256.9
56493.2
53949.9
51558.4
49369.2
47324.1
45430.4
43689.3
42085.1
40610.2
39259.1
38027.6
36913
35911.2
35017.9
34224.5
33525.9
32921.9
32401.1
31967.3
31615.9
31323.8
31087.7
30897.6
30761.9
30636.8
30553
30508.6
30455.9
30434
30416.1
30397.1
30381.4
30368.4
30362.6
30351
30325.8
30302.2
30269.3
30225.2
30163.8
30093.5
30006.8
29920.4
29820.2
29719.2
99852
99534.5
98899.9
97664.4
95582.8
92577.6
88824.4
84659
80423.6
76317.6
72435.2
68791
65391.6
62213.7
59262.2
56500
53957
51565.9
49374.7
47327
45435.1
43693.1
42087.2
40612
39261.7
38030.6
36916.1
35913.7
35019.2
34225.2
33526.6
32922.8
32403
31967.6
31616.2
31323.9
31087.2
30892.2
30760.7
30636.3
30552.6
30508.5
30455.2
30432.3
30414.3
30395.3
30378.7
30364.8
30354.6
30344.8
30323.9
30300.7
30267.7
30221.8
30162.8
30094.1
30007.9
29922.7
29822.2
29718.9
99852.1
99534.8
98900.8
97666.8
95587.7
92585.7
88836.2
84674.4
80442
76338.5
72458.1
68816.3
65418.1
62237.9
59289.6
56526
53983.2
51591.2
49402
47356.5
45462.4
43720.7
42115.8
40640.2
39288
38055.2
36939.2
35936
35041
34245.9
33545.5
32939.8
32416.7
31980.9
31627.4
31334
31095.6
30901.4
30766.6
30640.7
30555.8
30511.3
30456.9
30435.1
30416.4
30396.9
30379.1
30366.4
30360.4
30351.1
30326.8
30303.3
30271.6
30228.7
30167.6
30099.3
30012.1
29928.3
29826.8
29720
99852.1
99535
98901.5
97668.4
95590.6
92590.2
88842.1
84681
80448.9
76345
72464.2
68821.3
65422.8
62245.4
59294.6
56532.3
53989.9
51598.2
49407.4
47359.3
45466.8
43724.2
42117.7
40641.9
39290.5
38058.1
36942.2
35938.3
35042.4
34246.8
33546.3
32940.8
32418.5
31981.3
31627.8
31334.2
31095.2
30898.3
30765.7
30640.2
30555.5
30511.2
30456.3
30433.7
30414.9
30395.6
30377.5
30363.7
30355.6
30345.4
30325.4
30302
30270.1
30225.5
30167.5
30100.1
30012.8
29930.4
29828.3
29719.3
99852.2
99535.4
98902.5
97670.7
95595.3
92598
88853.3
84695.5
80466.1
76364.6
72485.6
68844.8
65447.5
62267.9
59320.2
56556.8
54014.4
51622
49432.8
47386.9
45492.4
43750.2
42144.5
40668
39315
38081.2
36963.9
35959.3
35062.8
34266.1
33564
32956.6
32431.5
31993.7
31638.4
31343.6
31103.1
30903.9
30771
30644.4
30558.4
30513.8
30458
30436
30417
30397.5
30379.2
30365.9
30358.3
30350.1
30328
30304.5
30273.7
30231.8
30172.3
30105
30016.8
29935.7
29832.9
29720.4
99852.3
99535.6
98903.1
97672.1
95597.9
92602.1
88858.8
84701.7
80472.5
76370.7
72491.4
68849.6
65452.1
62275
59325
56562.7
54020.7
51628.4
49437.9
47389.6
45496.5
43753.4
42146.4
40669.7
39317.4
38083.9
36966.7
35961.4
35064.2
34267
33564.8
32957.7
32433.1
31994.1
31638.8
31343.8
31102.9
30901.7
30770.5
30644.1
30558.1
30513.7
30457.4
30434.9
30415.6
30396.5
30378.6
30364
30355.4
30346
30326.4
30303.3
30272.2
30228.9
30172.2
30105.5
30017.4
29937.2
29834
29719
99852.3
99535.9
98904
97674.3
95602.4
92609.5
88869.3
84715.3
80488.6
76389
72511.4
68871.5
65475.1
62296
59348.8
56585.7
54043.7
51650.8
49461.7
47415.4
45520.5
43777.8
42171.3
40694.3
39340.4
38105.5
36987
35981.1
35083.2
34285.1
33581.3
32972.5
32445.3
32005.6
31648.8
31352.5
31110.4
30907
30775.5
30648
30560.8
30516.1
30459
30436.9
30417.6
30398.4
30381.2
30366.7
30357.6
30349.7
30328.9
30305.7
30275.6
30234.5
30176.5
30110
30021.4
29942.1
29838.7
29720.2
99852.5
99536.4
98905.5
97677.7
95608.9
92619.8
88883.1
84731.1
80505.2
76405
72526.5
68884.3
65487.1
62314.8
59361.5
56600.7
54059.9
51667.3
49474.9
47422.5
45531
43786.2
42176.4
40698.5
39346.5
38112.6
36994.1
35986.7
35086.9
34287.5
33583.6
32975.5
32449.4
32007
31650.2
31353.1
31110
30902.7
30774.7
30647.3
30560.2
30516.1
30457.8
30434
30414.4
30395.8
30379.7
30362.3
30350.8
30341.5
30324.9
30302.2
30271.9
30228.1
30175.9
30110.5
30022.1
29944.8
29840.5
29713.9
99852.4
99536
98903.8
97673
95599.3
92603.6
88860.6
84704.5
80477.2
76377.5
72500.3
68861.1
65465.6
62281.9
59339.8
56575.7
54033.5
51639.4
49452.8
47410.7
45513.9
43772.3
42167.4
40690.6
39336
38100.6
36982.1
35977
35080.2
34282.7
33578.9
32970
32441.8
32003.1
31647.5
31351.1
31109.5
30911.3
30776.5
30646.3
30559.9
30516.5
30457.3
30436.1
30419.6
30401.3
30389.1
30373.5
30363.1
30351
30325.9
30305.2
30274.1
30230.3
30173.7
30105.9
30014
29936.3
29827.8
29707
99852.5
99536.5
98905.5
97677.3
95608.3
92619
88882.7
84731.5
80506.2
76406.5
72528.3
68886.7
65489.2
62317.6
59363.6
56599.6
54062.1
51666.8
49475.9
47423.4
45530.8
43786.3
42177
40698.8
39346.5
38112.5
36993.8
35986.5
35087.1
34287.7
33583.6
32976
32447.9
32006.9
31650.4
31352.1
31109.4
30908.2
30775.6
30645.5
30559.1
30516.5
30455.8
30432.1
30415.3
30395.2
30377.5
30360.8
30352
30341.7
30321.4
30300
30270
30226.1
30168.9
30102.1
30009.4
29934.8
29826.3
29704.5
99852.6
99536.3
98904.4
97673.8
95600.1
92604.1
88860.3
84703.4
80475.6
76375.6
72498.1
68858.1
65463.1
62278.7
59338
56574.3
54032.8
51637.7
49452
47409.6
45513.4
43771.5
42166.4
40689.8
39335.3
38099.8
36981.2
35975.8
35078.9
34281.3
33577.5
32969
32440.2
32001.3
31646.6
31349.4
31108.4
30908.4
30775.5
30644.5
30558.3
30515.8
30454.9
30432.3
30419.1
30398.7
30382.4
30367.9
30357.6
30344.5
30321.6
30298.7
30268
30224
30166.2
30097.9
30002.5
29926.9
29816.4
29696.3
99852.7
99536.7
98905.6
97677
95607.6
92618
88881.9
84731.6
80507.1
76408
72530.1
68889.2
65491.6
62319.8
59366.1
56599.8
54064.5
51666.5
49477.1
47424.5
45530.9
43786.7
42177.8
40699.7
39346.9
38112.6
36993.6
35986.3
35087.1
34288.1
33583.8
32976.6
32446.8
32005.7
31650.8
31351.3
31107.5
30905.6
30773.7
30643.4
30557.5
30515.2
30453.6
30429.4
30414.9
30392.4
30377.2
30359.1
30349.5
30339
30318.5
30295.8
30264.7
30219.7
30161.9
30092.8
29996.3
29920.6
29810.5
29691.6
99852.7
99536.7
98905
97674.5
95601.1
92604.7
88860.3
84702.5
80474
76373.5
72495.8
68854.9
65460.3
62274.5
59335.5
56572.6
54031.7
51636.1
49450.8
47408
45512.6
43770.7
42165.3
40688.4
39334.1
38098.7
36980
35974.5
35077.4
34279.8
33576
32968.1
32438.4
31998.6
31645.7
31347.7
31105.5
30906.2
30773.2
30641.8
30555.7
30513.2
30452.4
30427.9
30416.6
30395.5
30380.6
30364.7
30353.8
30340.7
30317.3
30293.4
30261.6
30216
30157.6
30087.6
29989.6
29912.5
29800.9
29682.7
99852.8
99536.9
98905.8
97676.8
95606.9
92616.8
88880.7
84731.1
80507.7
76409.4
72531.9
68891.7
65494.2
62323.4
59369.3
56599.4
54067
51666.2
49478.4
47426.3
45531.2
43787.2
42178.6
40700.8
39347.6
38113
36993.7
35986.4
35087.4
34288.7
33584.4
32977.4
32446.3
32003.7
31651
31350.6
31106.2
30904.5
30771.9
30640.9
30554.8
30512.2
30451.6
30426.1
30414.1
30390.8
30374.4
30356.3
30346.3
30335.3
30313.8
30289.7
30257.7
30211.7
30153.1
30082.4
29983.4
29904.8
29792.3
29675.1
99852.9
99537.1
98905.6
97675.3
95602
92605.6
88860.6
84701.9
80472.7
76371.4
72493.4
68851.6
65457.2
62270.3
59332.4
56570.9
54030.4
51634.5
49449.5
47406.2
45511.6
43769.7
42164.1
40687
39332.9
38097.5
36978.7
35973
35075.8
34278.4
33574.4
32967.1
32437
31995.4
31644.6
31345.9
31103.3
30903.6
30770.7
30639.3
30552.5
30509.7
30450.1
30424
30413.5
30391.6
30376
30359.2
30348.2
30334.9
30310.1
30285.7
30253.4
30207.3
30148.3
30076.9
29976.7
29896.6
29782.5
29665.5
99853
99537.3
98906.1
97676.7
95606.3
92615.5
88879.1
84730.1
80507.8
76410.6
72533.7
68894.2
65496.9
62326.4
59372.9
56599.8
54069.7
51666.1
49479.3
47427.9
45531.8
43787.7
42179.5
40701.9
39348.6
38113.7
36994.2
35986.8
35088.1
34289.5
33585.1
32978.2
32446.7
32002.3
31651.3
31350.2
31105.3
30903.7
30770.6
30638.8
30552.3
30509.3
30449.3
30422.2
30411.3
30388.3
30370.4
30352
30341.8
30329.7
30306
30281.5
30249.1
30202.5
30143.2
30071.1
29970
29889
29774.4
29658.3
99853.1
99537.5
98906.2
97676.1
95603
92606.5
88861.2
84701.7
80471.6
76369.5
72491
68848.2
65453.9
62265.8
59328.8
56568.4
54028.7
51632.9
49448.4
47404.6
45510.4
43768.7
42163
40685.8
39331.8
38096.4
36977.5
35971.7
35074.4
34277
33572.9
32965.9
32436
31992.5
31643.2
31344
31101.3
30901.4
30768.7
30637.4
30550.1
30506.8
30447.4
30419.4
30408.9
30387.5
30369.7
30351.9
30341
30326.4
30302.1
30276.6
30243.4
30196.1
30136.7
30064.4
29962.5
29881.6
29767
29651.3
99853.2
99537.7
98906.6
97676.9
95605.9
92614.1
88877.1
84728.5
80507.4
76411.4
72535.2
68896.7
65499.8
62330.1
59377.1
56600.9
54072.6
51665.8
49480.2
47429.1
45532.2
43788
42180.1
40702.6
39349.4
38114.4
36994.7
35987.4
35088.9
34290.5
33586.1
32978.8
32447.5
32001.9
31651.8
31350.2
31105.2
30903.2
30769.9
30637.6
30550.5
30506.9
30446.3
30417.9
30407
30384.1
30365.4
30346.5
30336
30321.3
30297.5
30271.5
30237.8
30190.4
30130.8
30058.4
29955.5
29875.6
29761.3
29646.3
99853.3
99537.9
98906.8
97676.8
95604
92607.6
88862
84701.8
80470.8
76367.7
72488.6
68844.7
65450.3
62260.4
59324.2
56564.9
54026.8
51631.4
49446.9
47402.8
45509
43767.5
42161.7
40684.6
39330.7
38095.3
36976.3
35970.3
35073
34275.5
33571.4
32964.1
32434.7
31989.9
31641.7
31342
31099.3
30899
30766.3
30634.9
30546.9
30503.3
30443.3
30414.6
30403.7
30381
30362.9