/*--------------------------------*- C++ -*----------------------------------*\
| =========                 |                                                 |
| \\      /  F ield         | OpenFOAM: The Open Source CFD Toolbox           |
|  \\    /   O peration     | Version:  5.x                                   |
|   \\  /    A nd           | Web:      www.OpenFOAM.org                      |
|    \\/     M anipulation  |                                                 |
\*---------------------------------------------------------------------------*/
/*   Windows 32 and 64 bit porting by blueCAPE: http://www.bluecape.com.pt   *\
|  Based on Windows porting (2.0.x v4) by Symscape: http://www.symscape.com   |
\*---------------------------------------------------------------------------*/
FoamFile
{
    version     2.0;
    format      ascii;
    class       surfaceScalarField;
    location    "0.01";
    object      phi;
}
// * * * * * * * * * * * * * * * * * * * * * * * * * * * * * * * * * * * * * //

dimensions      [1 0 -1 0 0 0 0];

internalField   nonuniform List<scalar> 
19740
(
0.0182237
-0.000213634
0.0464577
-0.000583288
0.103108
-0.000942198
0.203509
-0.00113155
0.354418
-0.00139179
0.54791
-0.00139551
0.76344
-0.00129062
0.97921
-0.00116212
1.18128
-0.00113153
1.36414
-0.00105802
1.52736
-0.000957535
1.67197
-0.000773917
1.7996
-0.000705512
1.91122
-0.000569805
2.00938
7.67383e-005
2.09324
-0.0012205
2.16689
0.00123638
2.23265
-0.00159919
2.28028
0.000249188
2.32786
0.000666585
2.37154
4.22679e-005
2.39938
-0.000143028
2.41776
6.12564e-005
2.43886
0.000336048
2.46262
0.000573315
2.4798
0.000550898
2.48494
0.000169644
2.48202
-4.71758e-005
2.47961
5.86375e-005
2.48392
0.000324054
2.49375
0.00122122
2.50207
0.00114465
2.5028
0.000579392
2.49806
0.00032359
2.49019
0.00121256
2.48055
-0.000431608
2.47244
0.00121113
2.46876
0.0012396
2.47201
-0.000804414
2.47844
0.00329956
2.48378
0.000725087
2.48564
7.78402e-005
2.48552
0.00055665
2.48354
0.00102743
2.47592
0.000443537
2.4656
-0.00128775
2.45818
-0.000788029
2.45478
0.000474065
2.45469
-0.000291896
2.45602
-0.000884862
2.46369
-0.00223405
2.47993
0.000986489
2.49798
-0.00138035
2.5135
-0.00188711
2.52527
-0.00249385
2.53323
-0.00417458
2.53814
-0.00243885
2.54443
-0.00330982
2.55312
-0.00190085
0.00241987
0.0175233
-0.000379072
0.0445855
-0.00101836
0.0988195
-0.00158812
0.194911
-0.00174791
0.339371
-0.00196538
0.524744
-0.00169185
0.731463
-0.00128845
0.93863
-0.000958271
1.13281
-0.000914854
1.3086
-0.000824452
1.46557
-0.000730891
1.60471
-0.000488919
1.72742
-0.000324276
1.83491
-0.000323594
1.92948
0.000742357
2.01044
-0.00167314
2.08139
0.00332672
2.14418
-0.00244588
2.19046
0.00105601
2.23741
0.00167508
2.27896
0.00027108
2.30506
-0.000300172
2.32417
0.000112552
2.34687
0.000932272
2.37017
0.00149209
2.38487
0.00128164
2.38818
0.000202361
2.38627
-0.000408676
2.38719
-0.000165261
2.39455
0.000823956
2.40461
0.00260247
2.41082
0.00243944
2.40943
0.000728969
2.40386
0.000640742
2.39598
0.0018092
2.38801
-0.00194936
2.38273
0.00134161
2.38289
0.000154546
2.39065
0.000921472
2.39683
0.00432022
2.40066
0.000416743
2.40161
-0.000287754
2.40104
0.000745535
2.39835
0.00128371
2.38883
-0.00148128
2.38
-0.00194291
2.37472
-0.000951096
2.37312
-5.91872e-005
2.37403
-0.000977463
2.37749
-0.00231661
2.38929
-0.00111242
2.40405
0.000698689
2.41615
-0.00196298
2.42597
-0.00211402
2.43245
-0.00333338
2.43632
-0.00543948
2.43924
-0.00728355
2.44167
-0.00590779
2.44613
-0.002737
0.00521105
0.0169673
-0.000560734
0.0431863
-0.00151225
0.0957697
-0.00239617
0.189002
-0.00272824
0.329269
-0.00317834
0.50938
-0.0029147
0.710341
-0.00241043
0.911841
-0.00197631
1.10078
-0.00190821
1.27189
-0.00174739
1.42473
-0.00157138
1.56021
-0.00115358
1.67982
-0.000969669
1.78466
-0.00075902
1.87638
0.000534424
1.95599
-0.00193738
2.02455
0.0032872
2.08486
-0.0026931
2.13468
0.000923643
2.17574
0.00194028
2.21365
0.000462393
2.24498
-0.000140682
2.26622
0.000313656
2.28233
0.00111651
2.29926
0.00174369
2.31602
0.00161255
2.32697
0.000548799
2.32914
-0.000142749
2.32609
2.80929e-005
2.32462
0.00095407
2.32902
0.00297199
2.33717
0.00285915
2.34184
0.00112028
2.34032
0.00114531
2.33507
0.00205257
2.3279
-0.000858759
2.3196
0.000747753
2.31408
0.000688832
2.31334
0.000356981
2.31677
0.00542376
2.32243
0.00168337
2.32559
-0.000158475
2.32659
0.00113413
2.32646
0.00160455
2.32438
-0.000370795
2.31769
-0.00152146
2.30849
-0.00116086
2.30141
0.000871217
2.29815
-8.37586e-005
2.29693
-0.00149016
2.29731
-0.000777453
2.2999
0.000198131
2.30697
0.000129822
2.31626
-0.000847826
2.3236
-0.00302309
2.32801
-0.0050663
2.3308
-0.00826381
2.33236
-0.00446539
2.33474
0.00116438
0.00317098
0.0163338
-0.000706254
0.0415009
-0.0018912
0.091912
-0.00296826
0.181259
-0.00329727
0.315682
-0.00373171
0.488399
-0.00324594
0.681297
-0.00249798
0.874888
-0.00185888
1.05654
-0.00175999
1.22112
-0.00157516
1.36817
-0.0014051
1.49859
-0.000925657
1.61364
-0.00068571
1.71464
-0.000243936
1.80284
0.000547459
1.88026
-0.000968332
1.94581
0.00273309
2.00234
-0.00113912
2.05464
0.000858957
2.09154
0.00199738
2.12488
0.00106082
2.15948
0.000349771
2.18476
0.000614901
2.19786
0.00129297
2.20822
0.00201784
2.22305
0.00200864
2.23913
0.00110146
2.24844
0.0004207
2.24805
0.000378223
2.2425
0.00129432
2.23791
0.00361911
2.2407
0.00233068
2.24871
0.0024556
2.25452
0.00169169
2.25453
0.00247389
2.25172
-0.000751545
2.24613
0.00116848
2.23922
0.000210002
2.23473
0.000255941
2.23149
0.00592529
2.23296
0.00103303
2.23718
0.000621729
2.24144
0.00144502
2.2443
0.00125251
2.2454
-0.000324129
2.24563
-0.00164304
2.24286
-0.000713143
2.23662
-0.000353217
2.23076
-0.000548423
2.22642
-0.00113388
2.22519
7.47804e-005
2.22416
0.000559321
2.22414
0.000138847
2.22602
-0.00127058
2.22896
-0.00109875
2.23199
-0.00241654
2.23337
-0.0074793
2.23547
-0.00374432
2.23797
0.00143875
-0.00593274
0.0158037
-0.000860883
0.0401655
-0.0023092
0.0890019
-0.00365979
0.175624
-0.00414804
0.306061
-0.00479887
0.473781
-0.00432759
0.661206
-0.00349157
0.849407
-0.00274539
1.02608
-0.00261983
1.18621
-0.00237507
1.32931
-0.00214439
1.45623
-0.00149797
1.56833
-0.00127829
1.66674
-0.000610975
1.75254
3.51233e-005
1.82786
-0.000594678
1.89195
0.00149184
1.94728
-0.000431035
1.99811
0.000530944
2.03425
0.0018059
2.06663
0.0013225
2.09986
0.000690585
2.12437
0.000947666
2.1373
0.00146495
2.1474
0.00204606
2.16149
0.00199369
2.17682
0.00143657
2.18583
0.000959465
2.18555
0.000975556
2.18007
0.00145823
2.17552
0.00331364
2.17769
0.00129712
2.1852
0.00319332
2.19078
0.00221568
2.19059
0.0027802
2.18746
-3.19743e-005
2.18172
0.00229813
2.17419
0.0012266
2.16881
0.000915176
2.16561
0.00641718
2.16576
0.000703487
2.16916
0.000981806
2.17311
0.001946
2.17518
0.0013497
2.17563
0.00041462
2.17517
-0.0010305
2.17247
0.000803503
2.16604
0.000125308
2.15969
0.000251075
2.15545
0.00012167
2.15374
0.0009065
2.15262
0.000852342
2.15233
0.000993938
2.15404
-0.000573998
2.15744
0.00129433
2.16055
0.000242711
2.16193
-0.00437784
2.1635
-0.0020136
2.16575
-0.000216779
-0.0136461
0.0152273
-0.000988512
0.0386407
-0.00263897
0.0855183
-0.00416491
0.168629
-0.00467273
0.293758
-0.00531998
0.454723
-0.00467677
0.634753
-0.00364069
0.815675
-0.00270604
0.98562
-0.00253578
1.13971
-0.00225727
1.27745
-0.00202678
1.39969
-0.00133191
1.50757
-0.00106611
1.60229
-0.000245185
1.68516
-3.29946e-005
1.75776
0.00015235
1.81939
0.00112889
1.87293
0.00096698
1.92152
0.000412527
1.95635
0.0019741
1.98889
0.00192896
2.02126
0.00106055
2.04378
0.00108644
2.05615
0.00158078
2.06768
0.00235783
2.08305
0.00261861
2.09761
0.00206559
2.10445
0.00143948
2.1028
0.0012258
2.09806
0.00170952
2.09617
0.00358133
2.10161
0.00224215
2.10912
0.00385695
2.11289
0.00276863
2.11133
0.00279854
2.10802
-8.25958e-005
2.10141
0.00211399
2.09467
0.000851139
2.09121
0.00109353
2.08912
0.00642639
2.0933
0.00119697
2.09854
0.00205218
2.10188
0.00224825
2.10375
0.00153801
2.10438
0.000378573
2.1035
-0.00106727
2.09785
0.000167253
2.0906
-0.000111
2.08552
0.000355303
2.08262
-4.03602e-005
2.08177
0.0015207
2.0811
0.00165181
2.08249
0.00248434
2.08741
0.00137708
2.09232
0.00384392
2.09543
0.00320395
2.09679
-0.00131449
2.09814
-0.00137989
2.09899
-0.0018042
-0.0142054
0.0147252
-0.00112032
0.0373739
-0.00299306
0.0827552
-0.00475584
0.163276
-0.00541238
0.284623
-0.00625321
0.440859
-0.00563894
0.615704
-0.00453253
0.791508
-0.00349312
0.956717
-0.00329225
1.10657
-0.00295964
1.24056
-0.00267544
1.35944
-0.00182633
1.46451
-0.00159463
1.55679
-0.000487449
1.63733
-0.000388644
1.70797
0.000435941
1.76823
2.13255e-005
1.82048
0.00161815
1.8679
0.000110724
1.90195
0.0018518
1.9332
0.0021958
1.96443
0.00136303
1.98672
0.00135969
1.99891
0.00176899
2.00958
0.00237694
2.02395
0.00308486
2.03819
0.00210809
2.0455
0.00203501
2.04435
0.00169774
2.03941
0.00173568
2.03671
0.00313957
2.04091
0.00257283
2.04831
0.00354557
2.05249
0.00292391
2.05118
0.00294103
2.04772
0.000445767
2.04144
0.00265504
2.03389
0.00116031
2.02981
0.00127945
2.02741
0.00609517
2.02946
0.000545831
2.03404
0.00243381
2.03743
0.00225592
2.0388
0.0017796
2.03872
0.000812889
2.03765
-4.50024e-005
2.03391
0.000726195
2.02565
0.000205348
2.02014
0.000548743
2.01707
0.000389112
2.01603
0.00195367
2.01554
0.00212418
2.01669
0.00335308
2.02185
0.00222673
2.02772
0.00550839
2.03187
0.00445593
2.03426
0.000923371
2.03596
3.55556e-005
2.03731
-0.000513429
-0.00858545
0.0141981
-0.00123186
0.0359876
-0.00327993
0.0795965
-0.00519999
0.156934
-0.00589489
0.273452
-0.00674243
0.423507
-0.00599754
0.591553
-0.00471737
0.760648
-0.00350799
0.919647
-0.00325672
1.06391
-0.00288508
1.19294
-0.00260248
1.3075
-0.00170252
1.40866
-0.00140395
1.49749
-0.000191944
1.5753
-0.000470323
1.64343
0.00116473
1.70137
-0.000339639
1.75177
0.00287788
1.79737
-7.7719e-005
1.83023
0.00194587
1.86115
0.00270394
1.8916
0.00173493
1.91259
0.0015274
1.92441
0.00188381
1.93582
0.00273642
1.95065
0.00329934
1.96418
0.00305029
1.97022
0.00232952
1.96859
0.00184605
1.96447
0.00215554
1.96347
0.00328587
1.96912
0.00341334
1.97604
0.0044
1.97923
0.00353222
1.97741
0.00305142
1.97415
0.000838415
1.96767
0.00243848
1.96131
0.00107391
1.95816
0.00122212
1.95638
0.005458
1.96114
0.00177368
1.9661
0.00243407
1.96908
0.00238701
1.97071
0.00167141
1.97129
0.000970063
1.9704
0.000412374
1.96404
0.000741869
1.95697
0.000504165
1.95215
0.000571014
1.94977
0.000536471
1.94919
0.00203774
1.94912
0.00258956
1.95174
0.00433492
1.95846
0.00366682
1.96462
0.00620396
1.96901
0.00565574
1.97167
0.00343708
1.97331
0.00251012
1.97423
0.00137763
-0.00513174
0.0137249
-0.00134431
0.0347917
-0.00358037
0.0769843
-0.00570424
0.151869
-0.00653904
0.264806
-0.00755837
0.410388
-0.00685499
0.573535
-0.00552209
0.737785
-0.00421165
0.892287
-0.00392114
1.03253
-0.0034972
1.15798
-0.00317108
1.26934
-0.00212765
1.3678
-0.00183919
1.45432
-0.000370154
1.5299
-0.000873507
1.59616
0.0014535
1.65282
-0.00136624
1.70201
0.00341639
1.74642
-0.000342487
1.77853
0.00183198
1.80831
0.00298464
1.83768
0.00205293
1.85834
0.00180504
1.86992
0.00205238
1.88062
0.00312245
1.89468
0.00394386
1.90798
0.0029916
1.91435
0.00235391
1.91297
0.00246741
1.90863
0.00269056
1.907
0.00292863
1.91189
0.00363912
1.91879
0.00436609
1.92232
0.00368107
1.92067
0.00290747
1.91725
0.00125523
1.91095
0.0023924
1.90363
0.0012389
1.90027
0.00158385
1.89826
0.00520289
1.90136
0.00189129
1.90622
0.00255969
1.90922
0.00268237
1.91033
0.00212595
1.91013
0.00100849
1.90923
0.000393763
1.90503
0.000676022
1.89602
0.000817514
1.89083
0.000544423
1.88803
0.000843906
1.88724
0.00233501
1.8871
0.00319712
1.88919
0.0047665
1.89622
0.00477887
1.90332
0.00707317
1.90881
0.00728048
1.9123
0.00620961
1.91433
0.00575146
1.91547
0.00349737
-0.00561305
0.0132408
-0.00144142
0.0335257
-0.00382955
0.0741087
-0.00609343
0.1461
-0.00698132
0.254635
-0.00801892
0.394556
-0.00721715
0.551443
-0.00573067
0.709497
-0.00426574
0.858257
-0.00392213
0.993322
-0.00345753
1.11418
-0.00313276
1.22155
-0.00204948
1.31638
-0.00169643
1.39969
5.53085e-005
1.47273
-0.000966806
1.53668
0.00218408
1.59111
-0.00174298
1.63847
0.00469487
1.68142
-0.000620812
1.71233
0.00193752
1.74152
0.00354775
1.77028
0.0024264
1.79006
0.00188303
1.80131
0.00215091
1.81223
0.00316323
1.82633
0.00402842
1.83912
0.00401131
1.84486
0.00314113
1.84345
0.00227731
1.83971
0.00248301
1.83891
0.00300072
1.84425
0.00431108
1.85081
0.00516201
1.85391
0.00437152
1.85223
0.00309719
1.84913
0.00152646
1.84316
0.00187053
1.83709
0.000579883
1.83399
0.00161241
1.83209
0.0045502
1.83659
0.00340361
1.8414
0.00272923
1.84421
0.0029911
1.84562
0.00230928
1.84611
0.00195448
1.84564
0.00160977
1.83937
0.00181925
1.83237
0.00127164
1.82759
0.000759718
1.82499
0.00112243
1.82432
0.00240746
1.8244
0.0034638
1.82711
0.00536201
1.83457
0.0063532
1.84156
0.00797121
1.84682
0.00891681
1.85019
0.0087715
1.85201
0.00878949
1.85331
0.00540877
-0.00693475
0.0127965
-0.00153741
0.0324012
-0.00408472
0.0716482
-0.00652329
0.141322
-0.00754327
0.246472
-0.00873505
0.382166
-0.00798288
0.534428
-0.00645577
0.687904
-0.00489968
0.832406
-0.00450994
0.963652
-0.00398896
1.08111
-0.00362661
1.18541
-0.00241762
1.27769
-0.00209927
1.3588
-9.23243e-005
1.4297
-0.00128506
1.49188
0.00248207
1.54514
-0.00286364
1.5913
0.00610174
1.63316
-0.00087388
1.66332
0.00182256
1.69134
0.00425665
1.71913
0.00272525
1.73872
0.00209685
1.74966
0.00230284
1.75974
0.00287001
1.77305
0.00419198
1.7858
0.00432478
1.79209
0.00357693
1.79099
0.00221382
1.78695
0.00224587
1.78522
0.00272256
1.78974
0.00436499
1.79638
0.00527393
1.80008
0.00460978
1.79874
0.00301814
1.7957
0.00200176
1.78983
0.00222199
1.78278
0.000968508
1.77956
0.00139933
1.77739
0.00373554
1.78041
0.0031084
1.78517
0.00265904
1.78826
0.00322912
1.78945
0.00236841
1.78933
0.00151145
1.78853
0.00102566
1.78497
0.000965463
1.77623
0.000734006
1.77098
0.000498905
1.76815
0.00119673
1.76735
0.00256307
1.76717
0.00393312
1.7691
0.00605034
1.77649
0.00789384
1.7839
0.00926732
1.78973
0.010514
1.79359
0.0110271
1.79574
0.0111212
1.79726
0.00714177
-0.00462412
0.0123503
-0.00162165
0.0312404
-0.00430058
0.0690207
-0.00686334
0.136058
-0.00794715
0.237187
-0.00916697
0.36769
-0.00834315
0.514185
-0.00668967
0.661933
-0.00498484
0.801118
-0.00453746
0.927569
-0.00397636
1.04078
-0.00361956
1.14139
-0.00237404
1.2303
-0.00204768
1.30842
1.23174e-005
1.37695
-0.00149874
1.43696
0.00321264
1.48812
-0.00330281
1.53255
0.00652196
1.57312
-0.00120838
1.60215
0.00188279
1.62951
0.00439096
1.65673
0.00304535
1.67561
0.00213447
1.68625
0.00231454
1.69641
0.00349686
1.70964
0.00467329
1.72193
0.00491386
1.72774
0.0039329
1.7267
0.00261572
1.72314
0.00263592
1.72204
0.00263125
1.72673
0.00486964
1.73307
0.00601557
1.73641
0.00537664
1.73518
0.00295109
1.73233
0.00197015
1.72693
0.00217235
1.72109
0.000911591
1.71785
0.00187771
1.71568
0.00363678
1.71941
0.00382642
1.72412
0.00330703
1.72693
0.00382371
1.72837
0.00230962
1.72877
0.00100223
1.72823
0.000346277
1.72386
0.000630929
1.71662
0.000596126
1.71169
0.000565191
1.70909
0.00131916
1.70831
0.00277168
1.70835
0.00407448
1.71058
0.00643299
1.71809
0.00934072
1.72572
0.00993129
1.73165
0.0115189
1.73574
0.0125273
1.73807
0.0128714
1.73957
0.00942911
0.000295035
0.0119343
-0.0017036
0.0301862
-0.0045173
0.0667098
-0.00722962
0.131564
-0.00843842
0.229498
-0.00979697
0.356011
-0.00902825
0.498141
-0.00734677
0.641566
-0.00555665
0.776724
-0.00506272
0.89956
-0.00444277
1.00954
-0.00404511
1.10722
-0.00269229
1.19369
-0.00241364
1.26973
-0.00027751
1.33623
-0.00182398
1.39458
0.00354587
1.44463
-0.00439054
1.48789
0.00726334
1.52737
-0.0014171
1.55573
0.00168296
1.58198
0.00400364
1.60826
0.00371048
1.62699
0.00239907
1.63737
0.00242327
1.64666
0.00399501
1.65907
0.00476786
1.67133
0.00519843
1.67777
0.00430365
1.67711
0.00328356
1.67329
0.00300321
1.67119
0.00258228
1.67502
0.00478963
1.68142
0.0061012
1.68546
0.00570052
1.68459
0.00298849
1.68199
0.00251498
1.67668
0.00236018
1.67001
0.000660539
1.66676
0.00203275
1.6643
0.00348613
1.66673
0.00376134
1.67127
0.00344584
1.67456
0.00383189
1.67594
0.00250594
1.67597
0.00172179
1.67533
0.00189088
1.67255
0.0014683
1.66463
0.00058899
1.6593
0.000593018
1.65643
0.00129187
1.65562
0.00293267
1.65542
0.00444112
1.65695
0.00676821
1.66381
0.00963897
1.67175
0.0105464
1.67844
0.01203
1.68328
0.0135666
1.68608
0.0144557
1.68801
0.0121354
0.00459833
0.0115219
-0.00177643
0.0291185
-0.00470364
0.0643012
-0.00752597
0.126745
-0.00880628
0.221
-0.0101998
0.342748
-0.00938268
0.479562
-0.00759665
0.61769
-0.00566935
0.74792
-0.00511384
0.866305
-0.00444986
0.972344
-0.00406199
1.06662
-0.00266831
1.14996
-0.002359
1.22322
-0.000196544
1.28752
-0.00198468
1.34382
0.00422706
1.3919
-0.00487175
1.43357
0.00843887
1.47185
-0.00176836
1.49915
0.00171931
1.52476
0.00510165
1.55047
0.00358681
1.56851
0.00240781
1.57861
0.00245738
1.58799
0.00370765
1.60035
0.00518489
1.61215
0.00570918
1.61805
0.00462082
1.61741
0.0028539
1.61405
0.00267678
1.61262
0.00237903
1.61662
0.00517432
1.62271
0.00671346
1.6263
0.00637025
1.62554
0.00295935
1.62293
0.00283126
1.61808
0.00251805
1.6125
0.000441588
1.60914
0.00204812
1.60679
0.00322581
1.60964
0.00382674
1.6141
0.00419397
1.61704
0.00441603
1.61871
0.00208532
1.61928
0.000231298
1.61905
0.000644265
1.61573
4.745e-005
1.60882
-0.000117349
1.60372
0.000248099
1.60106
0.00104748
1.60037
0.00283043
1.60041
0.00443159
1.60211
0.00670063
1.60907
0.00953954
1.61726
0.0103742
1.62408
0.0119448
1.62918
0.0140495
1.63215
0.0156846
1.6342
0.0143151
0.00680747
0.0111331
-0.00184638
0.0281324
-0.00488758
0.062136
-0.007838
0.122527
-0.00923691
0.213772
-0.010755
0.331756
-0.00999677
0.464451
-0.008192
0.598498
-0.00618597
0.724925
-0.00558399
0.839893
-0.00486235
0.942864
-0.00442945
1.03436
-0.00292947
1.11537
-0.00265864
1.18665
-0.000235661
1.24902
-0.0022876
1.30377
0.00512159
1.35078
-0.00592309
1.39135
0.00922008
1.42851
-0.00195199
1.45518
0.00154651
1.47984
0.00456201
1.50464
0.00338345
1.5224
0.00266142
1.53225
0.0025634
1.54097
0.00321233
1.55264
0.00525764
1.56431
0.00594428
1.57064
0.0049719
1.57027
0.00292071
1.56671
0.0025395
1.56456
0.00251944
1.56794
0.00506099
1.57405
0.00679764
1.57815
0.00669547
1.5776
0.00299181
1.57533
0.00315304
1.57049
0.00271705
1.56421
-0.000326203
1.56099
0.00204187
1.55844
0.00311567
1.56043
0.00342651
1.56481
0.0042673
1.56817
0.00437835
1.56963
0.00248239
1.56973
0.000934052
1.56944
0.00103363
1.56699
0.000529091
1.55985
0.000622563
1.55482
0.000502896
1.55215
0.00082845
1.55145
0.00252329
1.55147
0.00424782
1.55279
0.00630411
1.55905
0.00886814
1.56726
0.00985572
1.57457
0.011724
1.58026
0.0143924
1.58364
0.0167468
1.58617
0.0159744
0.00840934
0.0107511
-0.00190915
0.0271475
-0.00504785
0.0599215
-0.00809564
0.118103
-0.00957133
0.205977
-0.0111292
0.319581
-0.0103428
0.447373
-0.00844726
0.576519
-0.00632014
0.698376
-0.00565478
0.809212
-0.00488512
0.908529
-0.00446164
0.99686
-0.00292367
1.07498
-0.00256141
1.14367
0.000279475
1.204
-0.00240579
1.25681
0.0053574
1.30199
-0.00641785
1.34109
0.0103542
1.37712
-0.00237653
1.40279
0.00162818
1.42688
0.00584729
1.45112
0.00414609
1.46816
0.00265029
1.47773
0.00254731
1.4866
0.00388597
1.49827
0.00563171
1.50946
0.00640478
1.51516
0.00526753
1.51471
0.00305693
1.51163
0.00265437
1.51027
0.00216241
1.51392
0.0053502
1.51969
0.00734358
1.52321
0.00729025
1.52267
0.00312744
1.52022
0.00326815
1.5158
0.00213283
1.51053
-0.00085484
1.50723
0.00149579
1.5049
0.0027797
1.50728
0.00350218
1.51154
0.00504915
1.51444
0.00469613
1.51618
0.00254814
1.51682
0.00123206
1.51683
0.00173163
1.51406
0.00168288
1.50752
0.000383879
1.50259
3.85172e-005
1.50003
0.000210947
1.4994
0.00206649
1.49969
0.00365491
1.5013
0.00547328
1.50795
0.00788158
1.51649
0.00886342
1.5239
0.0112468
1.52979
0.0144151
1.53335
0.017407
1.53596
0.017266
0.00956339
0.0103881
-0.00196884
0.0262266
-0.00520382
0.0578965
-0.00836148
0.114152
-0.00994981
0.199193
-0.0116193
0.30925
-0.0108943
0.433158
-0.00898506
0.558453
-0.00678799
0.676718
-0.00607541
0.784324
-0.00525013
0.880737
-0.00478137
0.966428
-0.00314655
1.04233
-0.00281825
1.10914
0.000472212
1.16764
-0.00273548
1.21898
0.00489167
1.26313
-0.00744476
1.3012
0.0111128
1.33611
-0.00261283
1.36118
0.00145838
1.38445
0.00605973
1.40782
0.00502772
1.42451
0.00282335
1.43382
0.0025789
1.44216
0.0044026
1.45327
0.00566133
1.46431
0.00660759
1.47026
0.00558535
1.46995
0.00333695
1.46668
0.00311451
1.46481
0.00233078
1.46807
0.00529067
1.47388
0.00748157
1.47777
0.00756962
1.47734
0.00313537
1.4752
0.00338017
1.47072
0.00259335
1.46488
-0.00127169
1.46173
0.00172883
1.45928
0.00285492
1.4612
0.00332838
1.46552
0.00507722
1.46877
0.00475071
1.47025
0.00263253
1.47037
0.000713121
1.47026
0.000958107
1.46765
0.00106231
1.4611
0.000588547
1.45678
-0.000700905
1.45493
-0.000192775
1.45377
0.00199606
1.45398
0.00303159
1.45533
0.00435547
1.46144
0.00664107
1.47001
0.00797027
1.47774
0.0109187
1.484
0.0143785
1.48781
0.0177401
1.49068
0.0179541
0.0101539
0.0100337
-0.0020228
0.0253162
-0.00534117
0.0558554
-0.00858493
0.110082
-0.0102532
0.192025
-0.0119659
0.298052
-0.0112297
0.417436
-0.00924286
0.538195
-0.00693511
0.652223
-0.00616035
0.75599
-0.00528458
0.849009
-0.00482328
0.931769
-0.00315429
1.00499
-0.00278167
1.06938
0.000696158
1.12598
-0.00293155
1.17551
0.00635557
1.21797
-0.00800118
1.25465
0.0122027
1.28854
-0.00308813
1.31267
0.00146386
1.33537
0.00656522
1.35819
0.00461487
1.37421
0.00272704
1.38326
0.00249904
1.39173
0.00393202
1.40282
0.00595561
1.41337
0.00701915
1.41874
0.00582557
1.41837
0.00321255
1.41559
0.00249481
1.41445
0.00181864
1.41793
0.00557415
1.42338
0.00802991
1.42668
0.00820382
1.42624
0.00312704
1.42392
0.00327573
1.4198
0.00270914
1.41478
-0.00175614
1.41165
0.00152524
1.40945
0.00277071
1.41163
0.0034624
1.41572
0.00576159
1.41847
0.00522686
1.41999
0.00298107
1.42055
0.00210341
1.42049
0.00235413
1.41797
0.00266511
1.41218
0.000695513
1.40754
-0.00133593
1.40515
-0.000604453
1.40463
0.00151263
1.40501
0.00202544
1.40668
0.00290207
1.41313
0.00523348
1.42201
0.00699556
1.42976
0.0104037
1.43608
0.0139619
1.43996
0.0175081
1.44291
0.0180555
0.0109462
0.00969523
-0.0020737
0.0244572
-0.00547326
0.0539642
-0.00881141
0.106386
-0.0105867
0.185668
-0.0123992
0.288355
-0.011726
0.404077
-0.00972937
0.521202
-0.00735845
0.631839
-0.0065372
0.732556
-0.005608
0.82283
-0.0051041
0.903088
-0.00335024
0.974208
-0.00305336
1.0368
0.000763968
1.09167
-0.00328499
1.1398
0.00718307
1.18126
-0.00897182
1.21698
0.0129738
1.24977
-0.00335735
1.27333
0.00119323
1.2953
0.00675425
1.31731
0.00412732
1.33295
0.00281975
1.34174
0.00245227
1.34974
0.00333408
1.36034
0.00598823
1.37075
0.00721018
1.37629
0.00609105
1.37599
0.0034008
1.37301
0.00218774
1.37145
0.00170237
1.37465
0.00555241
1.38016
0.00823239
1.38378
0.00850924
1.38342
0.0031295
1.38138
0.00345196
1.37712
0.00264904
1.3717
-0.000554481
1.36871
0.00187898
1.36643
0.00270827
1.36833
0.00321616
1.37254
0.00580356
1.37565
0.00515939
1.37709
0.00332009
1.37725
0.00187723
1.37701
0.00269599
1.37429
0.00334262
1.36862
5.03327e-005
1.36474
-0.00261698
1.3623
-0.000983426
1.3617
0.00102231
1.36208
0.00109237
1.36336
0.00171148
1.36935
0.00405385
1.37809
0.00651748
1.38588
0.0101006
1.39222
0.0134619
1.3961
0.0170895
1.399
0.0179963
0.0117444
0.00936601
-0.00211995
0.023614
-0.00559055
0.0520789
-0.00900474
0.102632
-0.0108614
0.179065
-0.0127195
0.278039
-0.0120492
0.389583
-0.00998965
0.502508
-0.00751577
0.609214
-0.00663204
0.706366
-0.00565108
0.793483
-0.00515191
0.87102
-0.00336749
0.939645
-0.00308106
1.00001
0.000680877
1.0531
-0.00349425
1.09954
0.00724192
1.13945
-0.0095893
1.17386
0.0140477
1.2057
-0.00382204
1.22839
0.00120429
1.2498
0.00721598
1.27125
0.00497363
1.28625
0.0027119
1.29481
0.0022995
1.30296
0.00385537
1.31352
0.00623168
1.32343
0.00758885
1.3284
0.0062862
1.32805
0.00329754
1.32555
0.00225964
1.32472
0.001435
1.32811
0.00585193
1.33325
0.00882622
1.33628
0.00913778
1.33587
0.00310711
1.33357
0.0034401
1.3297
0.00347999
1.32498
-0.000937755
1.32202
0.00217324
1.32004
0.00290175
1.32215
0.00326321
1.32608
0.00654369
1.32862
0.0057595
1.32994
0.00351129
1.33043
0.00107374
1.33024
0.00227858
1.3282
0.00251662
1.32314
-0.00067128
1.31849
-0.0026023
1.31589
-0.00133819
1.31538
0.000609198
1.3157
0.000782388
1.3174
0.000558057
1.32355
0.0027528
1.33228
0.00604802
1.33983
0.00969222
1.34599
0.0127348
1.34977
0.016485
1.3526
0.0178304
0.0125301
0.00905043
-0.00216331
0.0228132
-0.00570222
0.0503143
-0.00919766
0.0991789
-0.0111558
0.173114
-0.0131034
0.268946
-0.0124965
0.377039
-0.0104317
0.486538
-0.00789933
0.590042
-0.0069705
0.684314
-0.00593842
0.768841
-0.00540012
0.844009
-0.00353101
0.91064
-0.00332144
0.9693
0.000310334
1.02075
-0.00376534
1.06586
0.00759466
1.10478
-0.0105064
1.13831
0.0148401
1.16907
-0.00401295
1.1912
0.00100183
1.21198
0.00743611
1.23268
0.00583452
1.24728
0.00277956
1.25558
0.00223124
1.26331
0.00429789
1.27346
0.00627217
1.28323
0.00777754
1.2883
0.0065064
1.28796
0.00343515
1.28527
0.00256501
1.2841
0.00150944
1.28733
0.00585566
1.29253
0.00910197
1.29579
0.00945285
1.29543
0.00298804
1.29346
0.00356154
1.28939
0.00387189
1.28432
-0.00025781
1.28154
0.002252
1.27949
0.00281235
1.28145
0.0031206
1.28554
0.00674949
1.28845
0.00584546
1.2897
0.00352382
1.28981
0.00186978
1.28933
0.00268917
1.28774
0.00250421
1.28154
-0.000202968
1.27768
-0.00297236
1.27532
-0.00144593
1.27466
-0.000183615
1.27501
-0.000244038
1.27611
-0.000358886
1.2816
0.00201681
1.28979
0.00624199
1.2972
0.00954779
1.30337
0.0121278
1.30712
0.0159985
1.31003
0.0178039
0.0132615
0.0087443
-0.00220285
0.0220313
-0.00580199
0.0485699
-0.00936447
0.0957112
-0.0114042
0.167019
-0.0133987
0.259427
-0.0128064
0.363659
-0.0106931
0.469269
-0.00806769
0.569126
-0.00707346
0.660084
-0.00598844
0.741672
-0.00545115
0.814312
-0.00356064
0.878622
-0.0033437
0.935206
0.00026833
0.985009
-0.00396363
1.02856
0.0081723
1.06605
-0.011116
1.09835
0.0158844
1.12821
-0.00454153
1.14954
0.00105625
1.1698
0.00790261
1.18991
0.00530286
1.20388
0.00267634
1.212
0.0021076
1.21992
0.00378835
1.23
0.00650289
1.23923
0.00813496
1.24374
0.00669107
1.24336
0.00331934
1.24116
0.00196515
1.2407
0.000943009
1.24407
0.00615757
1.2489
0.00970606
1.2516
0.0100576
1.25117
0.00299745
1.24889
0.00380404
1.24519
0.00430686
1.24075
-0.00120205
1.23797
0.00208886
1.23624
0.00282846
1.23837
0.00318556
1.24216
0.00757644
1.24451
0.00642574
1.24574
0.00344348
1.24625
0.000339738
1.24599
0.00143264
1.24419
0.000976815
1.23905
-0.00173248
1.23412
-0.0025921
1.23166
-0.00180348
1.2309
-0.000495831
1.23092
-0.000708479
1.23208
-0.0012696
1.23699
0.000868364
1.24483
0.00661543
1.25236
0.00934922
1.25885
0.0115194
1.26274
0.0155077
1.26595
0.0178093
0.0140714
0.00845015
-0.00223975
0.0212852
-0.0058962
0.0469247
-0.00952872
0.0924872
-0.0116645
0.161454
-0.0137395
0.250907
-0.0132103
0.351889
-0.0110962
0.454268
-0.00841688
0.551105
-0.00737806
0.639345
-0.00624435
0.71849
-0.00567151
0.788891
-0.00370022
0.851308
-0.00353372
0.906286
0.000137954
0.954524
-0.00415792
0.99678
0.00853739
1.03332
-0.0119451
1.06483
0.0166594
1.09355
-0.00478782
1.11439
0.000886097
1.13423
0.00812065
1.15356
0.00491192
1.16695
0.00272692
1.17486
0.00207508
1.18261
0.00323805
1.19243
0.00656486
1.20139
0.00831198
1.20573
0.00687025
1.20522
0.00340128
1.20293
0.00172228
1.20245
0.000854039
1.20593
0.00620471
1.2108
0.0100011
1.21352
0.0104062
1.21297
0.0028291
1.21094
0.00390244
1.207
0.00504594
1.20227
-0.00176166
1.19968
0.00199254
1.19793
0.00275435
1.2001
0.00324447
1.20414
0.00794382
1.20689
0.00655944
1.20804
0.0035197
1.20816
0.000513312
1.20807
0.00152967
1.20524
0.00196073
1.20043
-0.00255527
1.19645
-0.003219
1.19372
-0.0018068
1.19192
-0.000199849
1.19178
-0.00108663
1.192
-0.00164635
1.19505
0.000610576
1.20167
0.00699107
1.20944
0.0092279
1.21662
0.0110653
1.22084
0.0152251
1.22433
0.018019
0.0148056
0.00816528
-0.00227347
0.0205591
-0.00598072
0.0453082
-0.00967227
0.0892784
-0.0118889
0.15582
-0.0140112
0.242112
-0.0135063
0.339523
-0.0113564
0.438298
-0.00859451
0.531751
-0.00748839
0.616911
-0.00630041
0.69332
-0.00572365
0.761368
-0.00373346
0.821633
-0.0035333
0.874655
0.00032518
0.921449
-0.0042929
0.962046
0.00887395
0.997605
-0.012059
1.02792
0.0171095
1.05466
-0.00485738
1.07688
0.000939228
1.09541
0.00841382
1.11223
0.00559167
1.12611
0.00269927
1.13591
0.00204624
1.14357
0.00383301
1.15108
0.00672457
1.1583
0.00849739
1.16336
0.00699428
1.16499
0.0033883
1.16404
0.00175457
1.16321
0.000755711
1.16493
0.00616764
1.16844
0.0104088
1.17102
0.0109539
1.1711
0.00291498
1.16923
0.00420062
1.16626
0.00497646
1.16263
-0.00242294
1.1601
0.0014006
1.15837
0.00267386
1.15997
0.00323569
1.16309
0.00873595
1.1651
0.00711144
1.16622
0.00352905
1.16681
0.000185027
1.16703
0.000771874
1.16638
0.00152831
1.16231
-0.00209882
1.15756
-0.00354215
1.15398
-0.00200799
1.15203
-0.000640987
1.15135
-0.00134866
1.15129
-0.00213259
1.15235
-4.67387e-005
1.15549
0.00612417
1.1613
0.00936023
1.16824
0.0106883
1.17237
0.0149614
1.1758
0.0181954
0.0156187
0.00789113
-0.00230481
0.0198641
-0.00605998
0.043775
-0.009812
0.0862705
-0.0121196
0.150619
-0.0143142
0.234135
-0.0138718
0.328487
-0.011725
0.424216
-0.00891336
0.514819
-0.00776307
0.597414
-0.00652854
0.671522
-0.00591989
0.737456
-0.00386425
0.795933
-0.00368092
0.847409
0.000412896
0.892807
-0.00429605
0.931908
0.0087308
0.966936
-0.0118546
0.996593
0.0166208
1.02075
-0.00432699
1.045
0.000837519
1.06285
0.00819218
1.07599
0.00568936
1.09016
0.00287539
1.10311
0.00222998
1.11081
0.0045586
1.11489
0.00664447
1.11924
0.00837646
1.12503
0.00701052
1.13032
0.00361282
1.13243
0.00224985
1.1312
0.001067
1.12911
0.00605207
1.12826
0.0102833
1.12976
0.0109716
1.13221
0.00269982
1.13374
0.00417769
1.1328
0.0045169
1.13078
-0.00270754
1.12883
0.00142944
1.12576
0.00258985
1.12458
0.00361374
1.12453
0.00818291
1.12544
0.00705596
1.12675
0.00391964
1.12747
0.000374388
1.12816
0.000722628
1.12776
0.00169306
1.12743
-0.00119568
1.12657
-0.00308948
1.12408
-0.00266175
1.12082