/*--------------------------------*- C++ -*----------------------------------*\
| =========                 |                                                 |
| \\      /  F ield         | OpenFOAM: The Open Source CFD Toolbox           |
|  \\    /   O peration     | Version:  5.x                                   |
|   \\  /    A nd           | Web:      www.OpenFOAM.org                      |
|    \\/     M anipulation  |                                                 |
\*---------------------------------------------------------------------------*/
/*   Windows 32 and 64 bit porting by blueCAPE: http://www.bluecape.com.pt   *\
|  Based on Windows porting (2.0.x v4) by Symscape: http://www.symscape.com   |
\*---------------------------------------------------------------------------*/
FoamFile
{
    version     2.0;
    format      ascii;
    class       volScalarField;
    location    "0.01";
    object      T;
}
// * * * * * * * * * * * * * * * * * * * * * * * * * * * * * * * * * * * * * //

dimensions      [0 0 0 1 0 0 0];

internalField   nonuniform List<scalar> 
10000
(
348.278
347.938
347.242
345.873
343.542
340.147
335.849
330.996
325.949
320.918
316.009
311.242
306.648
302.172
298.032
293.527
290.525
285.392
282.799
279.833
275.493
272.24
270.459
268.36
265.176
261.913
259.773
258.859
258.291
257.207
255.242
253.072
251.675
251.268
251.31
251.733
252.364
252.522
252.346
251.445
250.587
250.199
250.055
250.076
250.433
251.522
252.531
253.082
253.252
253.236
252.948
251.773
249.802
248.286
246.86
246.145
245.448
245.251
244.843
244.93
348.278
347.941
347.25
345.89
343.577
340.205
335.931
331.098
326.065
321.044
316.14
311.375
306.78
302.304
298.139
293.673
290.58
285.463
282.975
279.785
275.387
272.351
270.604
268.215
264.789
261.63
259.775
258.984
258.193
256.683
254.434
252.309
251.164
250.931
251.037
251.558
251.99
251.966
251.312
250.075
249.404
249.169
249.106
249.217
249.913
251.124
251.931
252.278
252.338
252.243
251.556
249.984
248.461
247.405
246.358
245.901
245.425
245.317
245.057
245.151
348.278
347.941
347.25
345.892
343.58
340.208
335.936
331.106
326.077
321.06
316.164
311.407
306.821
302.373
298.149
293.97
290.178
286.378
282.589
279.602
276.36
272.807
270.062
268.006
265.71
262.906
260.243
258.48
257.616
256.971
255.808
253.982
252.226
251.312
251.16
251.276
251.808
252.184
252.25
251.947
251.093
250.525
250.257
250.196
250.229
250.576
251.58
252.509
253.074
253.258
253.244
253.119
252.487
251.432
250.11
249.433
248.653
248.409
247.877
247.718
348.279
347.943
347.256
345.907
343.61
340.26
336.009
331.197
326.182
321.175
316.284
311.531
306.942
302.505
298.201
294.284
289.797
287.121
282.294
279.22
276.921
273.233
269.489
267.27
265.799
263.641
260.654
257.902
256.331
255.792
255.471
254.768
253.091
251.302
250.308
250.086
250.155
250.517
251.11
251.313
251.29
250.952
250.25
249.852
249.679
249.654
249.753
250.283
251.134
251.719
251.929
251.936
251.862
251.668
250.994
250.458
249.635
249.4
248.843
248.693
348.279
347.943
347.257
345.909
343.614
340.266
336.017
331.208
326.196
321.193
316.308
311.562
306.983
302.561
298.267
294.362
289.905
287.22
282.466
279.366
277.067
273.467
269.761
267.499
266.02
263.94
261.053
258.33
256.714
256.129
255.832
255.204
253.674
251.924
250.911
250.658
250.717
251.021
251.62
251.917
251.936
251.709
251.086
250.685
250.502
250.461
250.524
250.965
251.838
252.452
252.685
252.702
252.633
252.449
251.771
251.171
250.253
249.965
249.332
249.214
348.279
347.945
347.263
345.922
343.641
340.311
336.082
331.291
326.292
321.298
316.419
311.676
307.099
302.668
298.385
294.432
290.052
287.242
282.474
279.561
277.078
273.267
269.737
267.7
266.081
263.636
260.57
258.039
256.758
256.307
255.82
254.677
252.739
251.104
250.352
250.254
250.413
250.955
251.465
251.546
251.302
250.549
249.897
249.592
249.495
249.528
249.879
250.796
251.617
252.089
252.211
252.197
252.025
251.571
250.497
249.889
249.033
248.792
248.255
248.21
348.279
347.945
347.264
345.925
343.647
340.319
336.092
331.303
326.307
321.317
316.443
311.707
307.137
302.721
298.442
294.516
290.129
287.359
282.64
279.641
277.232
273.543
269.963
267.825
266.263
263.982
261.019
258.433
257.009
256.499
256.095
255.168
253.385
251.72
250.884
250.729
250.852
251.31
251.848
252.023
251.916
251.373
250.724
250.393
250.254
250.249
250.462
251.244
252.122
252.644
252.812
252.806
252.677
252.265
251.135
250.392
249.421
249.111
248.489
248.336
348.28
347.947
347.269
345.937
343.67
340.359
336.151
331.378
326.395
321.414
316.545
311.813
307.245
302.822
298.55
294.596
290.242
287.407
282.659
279.784
277.257
273.42
269.947
267.951
266.287
263.762
260.679
258.214
256.995
256.544
255.988
254.714
252.742
251.137
250.423
250.336
250.526
251.104
251.598
251.651
251.307
250.465
249.825
249.537
249.452
249.503
249.938
250.946
251.774
252.226
252.339
252.32
252.084
251.457
250.195
249.48
248.542
248.233
247.63
247.458
348.28
347.947
347.27
345.941
343.677
340.368
336.162
331.391
326.411
321.433
316.569
311.842
307.28
302.872
298.603
294.67
290.318
287.511
282.809
279.86
277.396
273.665
270.149
268.071
266.455
264.068
261.073
258.562
257.229
256.739
256.251
255.145
253.282
251.655
250.888
250.768
250.932
251.449
251.948
252.073
251.854
251.154
250.525
250.215
250.091
250.102
250.4
251.317
252.207
252.731
252.894
252.887
252.7
252.093
250.687
249.808
248.707
248.326
247.616
247.381
348.28
347.948
347.274
345.951
343.697
340.404
336.215
331.46
326.491
321.522
316.664
311.941
307.382
302.967
298.702
294.757
290.403
287.586
282.821
279.972
277.445
273.59
270.125
268.145
266.475
263.93
260.834
258.37
257.15
256.693
256.126
254.836
252.85
251.217
250.476
250.377
250.561
251.149
251.661
251.725
251.371
250.503
249.832
249.521
249.427
249.472
249.903
250.95
251.834
252.334
252.472
252.46
252.219
251.517
250.089
249.242
248.186
247.817
247.141
246.946
348.28
347.949
347.276
345.955
343.704
340.414
336.228
331.474
326.508
321.541
316.687
311.969
307.415
303.015
298.749
294.831
290.46
287.7
282.952
280.019
277.584
273.836
270.294
268.217
266.621
264.243
261.228
258.677
257.314
256.817
256.339
255.265
253.389
251.707
250.88
250.738
250.89
251.392
251.923
252.062
251.85
251.144
250.472
250.131
249.991
249.999
250.278
251.193
252.117
252.682
252.873
252.879
252.693
252.062
250.58
249.612
248.428
248.001
247.267
247.034
348.28
347.95
347.279
345.963
343.723
340.446
336.276
331.537
326.582
321.624
316.775
312.061
307.51
303.103
298.843
294.914
290.539
287.771
282.972
280.123
277.636
273.78
270.276
268.283
266.648
264.139
261.03
258.505
257.228
256.763
256.237
255.03
253.047
251.338
250.515
250.384
250.537
251.095
251.656
251.759
251.474
250.632
249.899
249.54
249.42
249.445
249.803
250.827
251.772
252.34
252.522
252.525
252.332
251.675
250.162
249.172
247.975
247.538
246.822
246.545
348.28
347.951
347.281
345.968
343.73
340.457
336.289
331.551
326.598
321.643
316.798
312.088
307.541
303.148
298.885
294.984
290.589
287.878
283.098
280.147
277.763
274.024
270.428
268.321
266.76
264.437
261.42
258.793
257.351
256.831
256.392
255.422
253.566
251.805
250.873
250.692
250.816
251.275
251.856
252.027
251.871
251.23
250.489
250.09
249.919
249.907
250.12
250.96
251.939
252.572
252.815
252.847
252.704
252.167
250.669
249.533
248.187
247.676
246.902
246.506
348.281
347.952
347.284
345.975
343.747
340.485
336.332
331.609
326.667
321.719
316.88
312.174
307.63
303.231
298.975
295.059
290.671
287.939
283.121
280.26
277.812
273.966
270.42
268.403
266.803
264.343
261.231
258.638
257.292
256.81
256.329
255.221
253.257
251.471
250.556
250.381
250.501
251.014
251.628
251.781
251.576
250.8
249.99
249.578
249.437
249.446
249.709
250.638
251.647
252.29
252.531
252.56
252.419
251.867
250.349
249.198
247.859
247.339
246.597
246.186
348.281
347.952
347.286
345.98
343.754
340.497
336.346
331.624
326.683
321.737
316.901
312.198
307.659
303.273
299.014
295.122
290.721
288.033
283.236
280.285
277.922
274.181
270.562
268.443
266.899
264.593
261.573
258.906
257.42
256.884
256.46
255.536
253.689
251.876
250.875
250.667
250.775
251.208
251.816
252.006
251.879
251.278
250.486
250.04
249.836
249.813
249.987
250.768
251.776
252.455
252.734
252.783
252.666
252.181
250.709
249.476
248.043
247.46
246.681
246.219
348.281
347.953
347.289
345.987
343.769
340.522
336.385
331.676
326.746
321.808
316.977
312.279
307.743
303.35
299.101
295.19
290.804
288.084
283.259
280.409
277.968
274.116
270.564
268.548
266.956
264.499
261.379
258.766
257.399
256.908
256.435
255.347
253.384
251.562
250.603
250.403
250.515
251.006
251.646
251.823
251.638
250.876
250.029
249.592
249.441
249.436
249.656
250.546
251.575
252.25
252.515
252.555
252.437
251.907
250.372
249.144
247.737
247.147
246.399
245.948
348.281
347.954
347.291
345.991
343.777
340.534
336.399
331.691
326.762
321.826
316.998
312.302
307.769
303.389
299.137
295.246
290.854
288.168
283.36
280.434
278.065
274.304
270.691
268.59
267.043
264.713
261.672
259.005
257.527
256.992
256.556
255.604
253.733
251.898
250.882
250.67
250.774
251.216
251.826
252.015
251.878
251.246
250.426
249.965
249.759
249.738
249.909
250.683
251.698
252.384
252.673
252.716
252.605
252.104
250.593
249.302
247.827
247.182
246.409
245.931
348.281
347.955
347.294
345.997
343.79
340.557
336.434
331.739
326.82
321.892
317.069
312.378
307.849
303.46
299.219
295.309
290.934
288.216
283.387
280.558
278.111
274.243
270.703
268.701
267.106
264.629
261.496
258.885
257.524
257.031
256.547
255.439
253.466
251.624
250.649
250.443
250.552
251.035
251.686
251.87
251.681
250.9
250.034
249.584
249.419
249.407
249.609
250.494
251.542
252.23
252.509
252.556
252.441
251.903
250.326
249.032
247.573
246.922
246.168
245.696
348.281
347.955
347.295
346.002
343.798
340.568
336.448
331.754
326.836
321.909
317.088
312.399
307.873
303.496
299.252
295.36
290.982
288.292
283.474
280.58
278.198
274.411
270.814
268.739
267.182
264.817
261.754
259.098
257.64
257.109
256.654
255.659
253.759
251.909
250.891
250.681
250.784
251.224
251.842
252.03
251.879
251.204
250.361
249.892
249.696
249.672
249.846
250.631
251.662
252.347
252.626
252.67
252.563
252.05
250.495
249.156
247.65
246.962
246.188
245.705
348.282
347.956
347.298
346.007
343.809
340.589
336.48
331.798
326.89
321.97
317.155
312.471
307.948
303.565
299.331
295.42
291.061
288.335
283.505
280.707
278.24
274.353
270.837
268.858
267.249
264.738
261.592
258.998
257.658
257.166
256.662
255.51
253.518
251.667
250.695
250.492
250.593
251.085
251.735
251.918
251.717
250.896
250.018
249.568
249.403
249.391
249.591
250.472
251.55
252.246
252.528
252.578
252.459
251.909
250.298
248.978
247.494
246.802
246.044
245.56
348.282
347.957
347.299
346.011
343.817
340.601
336.494
331.813
326.906
321.987
317.173
312.49
307.97
303.598
299.362
295.465
291.107
288.402
283.58
280.729
278.317
274.5
270.935
268.894
267.317
264.899
261.814
259.185
257.766
257.243
256.759
255.694
253.756
251.903
250.903
250.702
250.813
251.255
251.875
252.056
251.879
251.139
250.285
249.82
249.629
249.607
249.796
250.614
251.664
252.354
252.633
252.68
252.583
252.1
250.558
249.207
247.644
246.883
246.083
245.507
348.282
347.957
347.301
346.017
343.828
340.62
336.524
331.854
326.955
322.043
317.235
312.558
308.041
303.663
299.437
295.52
291.187
288.438
283.616
280.862
278.351
274.442
270.974
269.027
267.382
264.817
261.665
259.112
257.809
257.318
256.776
255.556
253.538
251.691
250.741
250.549
250.648
251.156
251.802
251.977
251.757
250.881
249.995
249.553
249.405
249.391
249.576
250.436
251.559
252.316
252.653
252.732
252.643
252.228
250.751
249.337
247.678
246.774
245.991
245.233
348.282
347.958
347.303
346.021
343.835
340.631
336.537
331.868
326.97
322.059
317.252
312.575
308.061
303.693
299.467
295.552
291.25
288.473
283.689
280.918
278.396
274.538
271.089
269.11
267.444
264.907
261.811
259.286
257.966
257.457
256.889
255.661
253.662
251.844
250.92
250.754
250.878
251.37
251.976
252.137
251.916
251.071
250.196
249.735
249.545
249.525
249.68
250.431
251.59
252.428
252.854
252.978
252.95
252.733
251.699
250.184
248.315
247.17
246.344
245.394
348.282
347.959
347.305
346.025
343.845
340.648
336.564
331.905
327.016
322.112
317.311
312.639
308.128
303.749
299.565
295.502
291.613
287.967
284.345
280.919
277.932
274.833
271.606
269.046
266.971
264.74
262.195
259.752
257.998
257.054
256.424
255.46
253.828
252.078
251.016
250.733
250.78
251.114
251.698
251.877
251.709
250.957
250.126
249.714
249.569
249.536
249.583
249.998
251.076
252.069
252.701
252.972
252.98
252.923
252.611
251.727
249.978
248.644
247.93
246.823
348.282
347.959
347.307
346.029
343.852
340.659
336.578
331.919
327.031
322.127
317.327
312.655
308.148
303.769
299.627
295.396
292.042
287.304
285.097
280.933
277.214
275.167
272.534
268.91
266.095
264.462
262.979
260.89
258.426
256.369
255.253
254.822
254.414
253.571
252.293
251.19
250.676
250.543
250.64
250.978
251.247
251.358
251.227
250.806
250.495
250.335
250.271
250.238
250.313
250.766
251.546
252.104
252.308
252.309
252.275
252.133
251.514
250.583
250.081
249.21
348.282
347.96
347.308
346.033
343.861
340.675
336.602
331.954
327.074
322.177
317.381
312.715
308.211
303.826
299.696
295.44
292.128
287.322
285.111
281.164
277.121
275.05
272.748
269.143
265.942
264.181
262.973
261.161
258.647
256.288
254.884
254.41
254.213
253.808
252.702
251.319
250.49
250.225
250.267
250.486
250.928
251.218
251.245
251.112
250.747
250.472
250.324
250.264
250.259
250.41
250.988
251.609
251.867
251.917
251.891
251.811
251.474
250.92
250.567
249.935
348.283
347.96
347.31
346.037
343.868
340.685
336.615
331.967
327.088
322.191
317.396
312.729
308.227
303.851
299.721
295.467
292.176
287.361
285.137
281.23
277.158
275.073
272.841
269.278
265.965
264.136
263.045
261.392
258.884
256.405
254.843
254.296
254.155
253.926
253.15
251.747
250.722
250.285
250.259
250.363
250.735
251.21
251.371
251.367
251.158
250.776
250.531
250.396
250.382
250.459
250.854
251.405
251.683
251.718
251.703
251.647
251.424
251.06
250.802
250.268
348.283
347.961
347.312
346.041
343.876
340.7
336.638
331.999
327.127
322.237
317.447
312.786
308.287
303.906
299.783
295.522
292.232
287.411
285.184
281.327
277.199
275.064
272.896
269.382
266.006
264.094
263.004
261.407
258.934
256.424
254.803
254.208
254.064
253.857
253.135
251.677
250.606
250.168
250.169
250.27
250.64
251.076
251.213
251.205
251.009
250.665
250.45
250.36
250.332
250.398
250.767
251.32
251.605
251.673
251.653
251.593
251.394
251.088
250.877
250.378
348.283
347.961
347.313
346.044
343.883
340.709
336.65
332.012
327.141
322.25
317.461
312.799
308.302
303.929
299.805
295.549
292.267
287.45
285.221
281.343
277.249
275.132
272.946
269.425
266.052
264.141
263.085
261.525
259.058
256.516
254.835
254.207
254.075
253.923
253.347
251.963
250.793
250.232
250.178
250.243
250.542
251.084
251.32
251.36
251.241
250.87
250.573
250.405
250.375
250.407
250.649
251.176
251.52
251.613
251.609
251.572
251.417
251.174
251.01
250.529
348.283
347.962
347.315
346.048
343.89
340.723
336.671
332.042
327.177
322.293
317.509
312.853
308.359
303.981
299.862
295.606
292.314
287.506
285.278
281.405
277.303
275.171
272.981
269.467
266.107
264.191
263.09
261.495
259.027
256.508
254.857
254.237
254.093
253.906
253.245
251.788
250.638
250.156
250.135
250.218
250.559
251.046
251.231
251.248
251.105
250.719
250.442
250.317
250.284
250.314
250.576
251.141
251.523
251.654
251.65
251.613
251.466
251.219
251.062
250.573
348.283
347.962
347.316
346.051
343.896
340.732
336.683
332.054
327.19
322.306
317.522
312.865
308.372
304.002
299.881
295.632
292.342
287.541
285.315
281.405
277.348
275.25
273.016
269.472
266.144
264.27
263.186
261.572
259.078
256.551
254.905
254.296
254.162
253.988
253.355
251.927
250.757
250.2
250.159
250.23
250.555
251.101
251.333
251.371
251.242
250.828
250.498
250.32
250.283
250.309
250.529
251.079
251.498
251.651
251.661
251.637
251.507
251.269
251.115
250.616
348.283
347.963
347.317
346.055
343.903
340.745
336.703
332.082
327.224
322.346
317.567
312.916
308.426
304.052
299.936
295.687
292.388
287.596
285.369
281.468
277.404
275.289
273.054
269.521
266.201
264.321
263.199
261.554
259.06
256.553
254.935
254.335
254.189
253.981
253.268
251.775
250.618
250.14
250.132
250.227
250.594
251.085
251.265
251.279
251.122
250.69
250.379
250.237
250.202
250.229
250.485
251.083
251.527
251.699
251.705
251.678
251.544
251.275
251.102
250.559
348.283
347.963
347.319
346.058
343.909
340.753
336.714
332.094
327.237
322.358
317.579
312.926
308.437
304.071
299.952
295.711
292.409
287.63
285.407
281.449
277.451
275.372
273.07
269.501
266.234
264.413
263.293
261.601
259.068
256.569
254.985
254.414
254.276
254.06
253.324
251.842
250.693
250.189
250.156
250.243
250.614
251.149
251.357
251.382
251.22
250.754
250.393
250.208
250.17
250.202
250.456
251.058
251.512
251.685
251.7
251.678
251.55
251.268
251.084
250.54
348.283
347.964
347.32
346.061
343.916
340.765
336.732
332.119
327.269
322.396
317.621
312.974
308.488
304.119
300.005
295.765
292.453
287.685
285.463
281.5
277.514
275.425
273.102
269.537
266.299
264.491
263.323
261.574
259.03
256.569
255.043
254.502
254.347
254.072
253.194
251.662
250.558
250.142
250.157
250.292
250.724
251.184
251.319
251.307
251.071
250.588
250.276
250.136
250.107
250.161
250.512
251.158
251.589
251.741
251.742
251.709
251.554
251.232
251.03
250.49
348.283
347.964
347.321
346.064
343.921
340.773
336.742
332.13
327.28
322.407
317.632
312.983
308.498
304.136
300.018
295.786
292.47
287.715
285.495
281.479
277.555
275.498
273.11
269.51
266.325
264.575
263.405
261.604
259.02
256.571
255.089
254.582
254.431
254.136
253.202
251.687
250.614
250.186
250.184
250.315
250.766
251.247
251.388
251.374
251.111
250.602
250.261
250.094
250.072
250.151
250.563
251.193
251.588
251.709
251.707
251.668
251.494
251.155
250.94
250.42
348.283
347.964
347.322
346.067
343.927
340.784
336.759
332.154
327.31
322.442
317.672
313.029
308.547
304.181
300.069
295.838
292.513
287.769
285.548
281.533
277.619
275.55
273.146
269.551
266.394
264.654
263.441
261.585
258.989
256.582
255.16
254.683
254.509
254.147
253.071
251.526
250.514
250.17
250.204
250.398
250.896
251.292
251.367
251.296
250.914
250.445
250.181
250.064
250.056
250.185
250.7
251.314
251.661
251.748
251.734
251.675
251.443
251.04
250.789
250.273
348.284
347.965
347.324
346.069
343.932
340.792
336.769
332.164
327.32
322.452
317.682
313.037
308.555
304.196
300.08
295.855
292.528
287.794
285.575
281.515
277.65
275.607
273.151
269.528
266.411
264.718
263.508
261.61
258.976
256.577
255.196
254.746
254.573
254.187
253.062
251.544
250.562
250.21
250.226
250.413
250.924
251.332
251.407
251.329
250.926
250.443
250.145
250.017
250.018
250.186
250.751
251.341
251.659
251.732
251.716
251.654
251.396
250.924
250.627
250.041
348.284
347.965
347.325
346.072
343.938
340.802
336.785
332.187
327.349
322.486
317.72
313.08
308.602
304.24
300.129
295.905
292.572
287.847
285.625
281.574
277.712
275.657
273.193
269.577
266.48
264.79
263.544
261.605
258.967
256.604
255.267
254.836
254.641
254.195
252.964
251.434
250.497
250.208
250.251
250.498
251.024
251.373
251.409
251.258
250.763
250.332
250.109
250.016
250.02
250.215
250.819
251.422
251.745
251.817
251.797
251.726
251.429
250.853
250.512
249.856
348.284
347.965
347.326
346.075
343.943
340.809
336.794
332.197
327.358
322.495
317.729
313.087
308.609
304.253
300.139
295.919
292.584
287.867
285.648
281.554
277.739
275.704
273.191
269.552
266.494
264.842
263.592
261.617
258.953
256.6
255.292
254.878
254.682
254.217
252.962
251.454
250.533
250.224
250.254
250.485
251.024
251.397
251.44
251.3
250.808
250.34
250.063
249.941
249.948
250.153
250.787
251.414
251.755
251.839
251.825
251.759
251.458
250.851
250.505
249.828
348.284
347.966
347.327
346.077
343.948
340.819
336.809
332.218
327.385
322.527
317.765
313.128
308.653
304.294
300.186
295.966
292.629
287.917
285.694
281.62
277.796
275.746
273.242
269.616
266.561
264.897
263.624
261.635
258.983
256.646
255.347
254.933
254.725
254.234
252.938
251.413
250.496
250.227
250.267
250.535
251.077
251.427
251.454
251.274
250.732
250.283
250.045
249.95
249.954
250.15
250.785
251.437
251.802
251.901
251.886
251.82
251.521
250.895
250.541
249.845
348.284
347.966
347.328
346.08
343.952
340.825
336.817
332.227
327.394
322.535
317.773
313.134
308.659
304.305
300.194
295.977
292.638
287.934
285.711
281.601
277.817
275.782
273.237
269.593
266.567
264.931
263.656
261.645
258.974
256.638
255.352
254.947
254.742
254.246
252.948
251.433
250.519
250.216
250.253
250.498
251.053
251.428
251.467
251.308
250.783
250.297
250.011
249.882
249.887
250.091
250.745
251.413
251.789
251.896
251.887
251.827
251.53
250.907
250.559
249.876
348.284
347.966
347.329
346.082
343.958
340.835
336.832
332.246
327.419
322.565
317.806
313.173
308.701
304.345
300.239
296.024
292.681
287.985
285.759
281.659
277.879
275.83
273.285
269.654
266.64
264.996
263.695
261.666
259.003
256.687
255.415
255.013
254.796
254.27
252.93
251.406
250.495
250.235
250.275
250.555
251.11
251.464
251.488
251.287
250.715
250.247
249.994
249.901
249.91
250.117
250.775
251.449
251.832
251.945
251.931
251.867
251.564
250.938
250.588
249.904
348.284
347.967
347.33
346.084
343.962
340.84
336.839
332.255
327.427
322.573
317.814
313.179
308.706
304.354
300.245
296.034
292.686
288.001
285.773
281.631
277.901
275.865
273.265
269.619
266.647
265.036
263.722
261.652
258.967
256.668
255.43
255.043
254.82
254.264
252.891
251.385
250.499
250.22
250.264
250.54
251.106
251.469
251.492
251.286
250.713
250.23
249.954
249.836
249.843
250.083
250.784
251.456
251.83
251.935
251.923
251.858
251.534
250.908
250.553
249.878
348.284
347.967
347.331
346.087
343.967
340.849
336.853
332.273
327.451
322.601
317.846
313.216
308.746
304.393
300.289
296.081
292.726
288.054
285.822
281.68
277.971
275.924
273.305
269.669
266.729
265.122
263.771
261.661
258.979
256.719
255.521
255.148
254.901
254.281
252.838
251.344
250.487
250.255
250.311
250.641
251.198
251.53
251.529
251.244
250.621
250.171
249.932
249.854
249.884
250.159
250.879
251.536
251.896
251.996
251.973
251.901
251.557
250.912
250.527
249.816
348.284
347.967
347.332
346.088
343.97
340.855
336.859
332.281
327.458
322.608
317.852
313.22
308.75
304.401
300.293
296.088
292.728
288.066
285.832
281.65
277.989
275.953
273.278
269.627
266.734
265.162
263.789
261.628
258.923
256.694
255.545
255.188
254.924
254.246
252.758
251.292
250.478
250.247
250.308
250.648
251.206
251.529
251.515
251.186
250.571
250.127
249.882
249.796
249.824
250.159
250.926
251.566
251.909
251.994
251.975
251.903
251.537
250.848
250.41
249.623
348.284
347.968
347.333
346.091
343.975
340.863
336.872
332.298
327.48
322.634
317.882
313.255
308.789
304.438
300.335
296.133
292.771
288.115
285.88
281.709
278.049
276.006
273.332
269.689
266.809
265.238
263.841
261.655
258.954
256.754
255.635
255.287
255.001
254.264
252.734
251.281
250.489
250.284
250.364
250.753
251.295
251.59
251.553
251.146
250.514
250.096
249.885
249.823
249.871
250.229
251.005
251.654
252.008
252.104
252.079
252.006
251.63
250.828
250.343
249.427
348.284
347.968
347.333
346.092
343.978
340.868
336.878
332.305
327.487
322.64
317.888
313.259
308.791
304.444
300.338
296.136
292.774
288.12
285.884
281.691
278.051
276.019
273.314
269.657
266.799
265.249
263.846
261.633
258.916
256.727
255.629
255.287
254.993
254.228
252.686
251.245
250.471
250.263
250.338
250.721
251.268
251.563
251.52
251.102
250.485
250.065
249.837
249.761
249.802
250.173
250.995
251.674
252.047
252.152
252.138
252.066
251.672
250.81
250.319
249.352
348.284
347.968
347.334
346.095
343.983
340.876
336.891
332.322
327.508
322.665
317.917
313.292
308.828
304.479
300.38
296.178
292.821
288.163
285.931
281.762
278.101
276.062
273.383
269.737
266.865
265.299
263.894
261.692
258.988
256.797
255.688
255.342
255.045
254.278
252.735
251.287
250.501
250.291
250.38
250.781
251.324
251.616
251.57
251.135
250.5
250.084
249.872
249.808
249.85
250.213
251.036
251.737
252.131
252.255
252.237
252.166
251.776
250.882
250.379
249.371
348.284
347.968
347.335
346.096
343.986
340.88
336.896
332.328
327.514
322.671
317.922
313.295
308.83
304.484
300.382
296.179
292.823
288.167
285.932
281.739
278.108
276.071
273.358
269.705
266.857
265.305
263.893
261.673
258.958
256.77
255.669
255.326
255.033
254.269
252.726
251.275
250.488
250.268
250.347
250.733
251.295
251.607
251.572
251.169
250.543
250.11
249.874
249.791
249.824
250.174
251.005
251.718
252.122
252.251
252.244
252.179
251.802
250.91
250.42
249.404
348.284
347.969
347.336
346.098
343.99
340.888
336.909
332.345
327.536
322.697
317.952
313.33
308.87
304.524
300.427
296.232
292.864
288.234
285.983
281.802
278.186
276.139
273.427
269.789
266.944
265.384
263.968
261.758
259.052
256.857
255.74
255.395
255.111
254.374
252.84
251.365
250.544
250.31
250.396
250.781
251.358
251.689
251.667
251.294
250.631
250.168
249.92
249.832
249.851
250.139
250.914
251.648
252.085
252.247
252.243
252.191
251.871
251.023
250.533
249.49
348.285
347.969
347.337
346.102
343.997
340.898
336.922
332.361
327.551
322.711
317.964
313.338
308.874
304.539
300.425
296.242
292.854
288.246
285.979
281.754
278.171
276.145
273.389
269.714
266.876
265.344
263.951
261.733
258.983
256.746
255.606
255.26
255.001
254.32
252.811
251.292
250.426
250.142
250.198
250.518
251.12
251.492
251.49
251.188
250.545
250.033
249.723
249.585
249.583
249.832
250.628
251.424
251.932
252.14
252.176
252.136
251.945
251.166
250.51
249.316
348.285
347.969
347.335
346.097
343.987
340.882
336.899
332.332
327.521
322.68
317.934
313.311
308.851
304.494
300.407
296.201
292.843
288.191
285.942
281.82
278.117
276.06
273.44
269.809
266.873
265.255
263.89
261.779
259.099
256.826
255.606
255.227
254.981
254.366
252.925
251.396
250.486
250.222
250.287
250.624
251.218
251.594
251.599
251.328
250.681
250.188
249.93
249.825
249.829
250.033
250.744
251.586
252.146
252.402
252.434
252.407
252.25
251.517
250.795
249.591
348.285
347.969
347.337
346.101
343.996
340.898
336.922
332.361
327.553
322.713
317.966
313.341
308.877
304.542
300.431
296.23
292.878
288.225
285.972
281.809
278.135
276.1
273.434
269.772
266.853
265.267
263.921
261.793
259.071
256.766
255.536
255.164
254.936
254.355
252.94
251.372
250.431
250.123
250.163
250.448
251.065
251.476
251.493
251.262
250.651
250.098
249.755
249.598
249.587
249.756
250.456
251.339
251.944
252.242
252.298
252.277
252.145
251.484
250.767
249.549
348.285
347.969
347.336
346.098
343.988
340.882
336.898
332.331
327.519
322.678
317.931
313.307
308.848
304.488
300.406
296.196
292.844
288.186
285.937
281.828
278.107
276.051
273.45
269.818
266.861
265.23
263.881
261.8
259.126
256.825
255.57
255.181
254.948
254.373
252.977
251.427
250.49
250.201
250.26
250.569
251.173
251.572
251.587
251.359
250.739
250.201
249.898
249.774
249.772
249.946
250.633
251.504
252.106
252.404
252.457
252.434
252.299
251.616
250.863
249.634
348.285
347.97
347.337
346.101
343.995
340.897
336.921
332.361
327.554
322.715
317.968
313.345
308.88
304.545
300.437
296.224
292.895
288.215
285.963
281.842
278.122
276.074
273.452
269.806
266.85
265.236
263.905
261.813
259.106
256.781
255.519
255.138
254.917
254.362
252.981
251.399
250.43
250.112
250.156
250.444
251.068
251.485
251.502
251.278
250.676
250.118
249.78
249.618
249.603
249.76
250.437
251.34
251.972
252.299
252.367
252.345
252.226
251.603
250.861
249.624
348.285
347.97
347.337
346.099
343.989
340.883
336.898
332.33
327.517
322.675
317.928
313.303
308.845
304.481
300.404
296.191
292.846
288.181
285.931
281.837
278.095
276.039
273.461
269.828
266.846
265.205
263.873
261.819
259.147
256.823
255.54
255.142
254.919
254.375
253.018
251.449
250.488
250.186
250.236
250.527
251.134
251.545
251.568
251.369
250.778
250.215
249.891
249.748
249.74
249.897
250.558
251.442
252.067
252.385
252.452
252.429
252.308
251.666
250.917
249.677
348.285
347.97
347.337
346.101
343.995
340.895
336.92
332.361
327.555
322.717
317.971
313.348
308.883
304.55
300.444
296.217
292.91
288.208
285.955
281.874
278.113
276.048
273.469
269.838
266.848
265.207
263.889
261.833
259.142
256.798
255.504
255.11
254.895
254.367
253.025
251.431
250.435
250.104
250.147
250.431
251.057
251.482
251.506
251.299
250.713
250.146
249.801
249.638
249.622
249.764
250.408
251.311
251.958
252.303
252.379
252.358
252.249
251.664
250.934
249.691
348.285
347.97
347.337
346.099
343.99
340.884
336.899
332.329
327.515
322.673
317.925
313.298
308.841
304.474
300.402
296.184
292.85
288.173
285.923
281.856
278.078
276.015
273.481
269.853
266.827
265.16
263.856
261.852
259.192
256.83
255.494
255.075
254.867
254.378
253.097
251.503
250.496
250.163
250.203
250.463
251.062
251.498
251.541
251.391
250.861
250.27
249.912
249.749
249.733
249.865
250.472
251.356
251.993
252.324
252.401
252.379
252.264
251.664
250.917
249.686
348.285
347.97
347.338
346.101
343.994
340.894
336.918
332.36
327.555
322.718
317.973
313.351
308.887
304.554
300.451
296.211
292.925
288.201
285.945
281.906
278.104
276.021
273.488
269.875
266.844
265.171
263.873
261.864
259.189
256.816
255.479
255.067
254.863
254.374
253.09
251.479
250.447
250.097
250.135
250.405
251.027
251.464
251.498
251.312
250.748
250.177
249.824
249.659
249.643
249.774
250.385
251.277
251.924
252.27
252.348
252.328
252.217
251.651
250.907
249.667
348.285
347.97
347.338
346.1
343.991
340.885
336.899
332.329
327.514
322.67
317.922
313.294
308.837
304.467
300.398
296.177
292.853
288.166
285.915
281.872
278.065
275.993
273.495
269.876
266.812
265.122
263.841
261.877
259.228
256.837
255.458
255.02
254.825
254.376
253.164
251.551
250.503
250.143
250.175
250.411
251
251.459
251.518
251.398
250.925
250.318
249.933
249.753
249.731
249.851
250.433
251.303
251.932
252.258
252.333
252.311
252.193
251.597
250.844
249.625
348.285
347.971
347.338
346.101
343.994
340.893
336.916
332.358
327.554
322.719
317.975
313.355
308.891
304.559
300.46
296.208
292.937
288.198
285.936
281.93
278.098
276
273.504
269.903
266.839
265.142
263.864
261.891
259.225
256.828
255.459
255.034
254.841
254.381
253.143
251.519
250.46
250.094
250.129
250.389
251.005
251.445
251.481
251.301
250.749
250.184
249.833
249.673
249.66
249.799
250.419
251.286
251.905
252.223
252.292
252.27
252.143
251.524
250.772
249.564