/*--------------------------------*- C++ -*----------------------------------*\
| =========                 |                                                 |
| \\      /  F ield         | OpenFOAM: The Open Source CFD Toolbox           |
|  \\    /   O peration     | Version:  5.x                                   |
|   \\  /    A nd           | Web:      www.OpenFOAM.org                      |
|    \\/     M anipulation  |                                                 |
\*---------------------------------------------------------------------------*/
/*   Windows 32 and 64 bit porting by blueCAPE: http://www.bluecape.com.pt   *\
|  Based on Windows porting (2.0.x v4) by Symscape: http://www.symscape.com   |
\*---------------------------------------------------------------------------*/
FoamFile
{
    version     2.0;
    format      ascii;
    class       volVectorField;
    location    "0.01";
    object      U;
}
// * * * * * * * * * * * * * * * * * * * * * * * * * * * * * * * * * * * * * //

dimensions      [0 1 -1 0 0 0 0];

internalField   nonuniform List<vector> 
10000
(
(0.39013 0.000853235 0)
(1.34014 0.00481914 4.32664e-021)
(3.17237 0.0161628 4.3755e-021)
(6.82151 0.040988 -1.81867e-020)
(13.0121 0.0864409 2.77012e-020)
(22.0812 0.155963 -7.50548e-022)
(33.68 0.245336 -1.96434e-020)
(46.9103 0.345835 0)
(60.8623 0.453401 0)
(74.9018 0.558489 0)
(88.7535 0.666336 -3.9242e-020)
(102.312 0.767717 2.16532e-021)
(115.539 0.867133 4.23983e-020)
(128.399 0.986829 0)
(140.887 1.07108 0)
(152.97 1.16256 0)
(164.662 1.25737 0)
(175.897 1.38441 -4.30508e-020)
(186.737 1.48447 8.97224e-020)
(197.121 1.56609 -4.65805e-020)
(206.998 1.65797 4.52033e-020)
(216.41 1.73152 -4.77638e-020)
(225.371 1.78375 0)
(233.797 1.83037 0)
(241.612 1.90406 0)
(248.835 1.98367 0)
(255.516 2.04496 0)
(261.647 2.07754 0)
(267.16 2.08792 -1.06339e-019)
(271.984 2.09925 1.11112e-019)
(276.102 2.14345 0)
(279.596 2.18839 0)
(282.548 2.2218 0)
(285.002 2.23356 0)
(287.004 2.22807 -1.22669e-019)
(288.593 2.1652 2.53477e-019)
(289.779 2.10988 -2.6107e-019)
(290.567 2.03094 1.34457e-019)
(291.079 1.9125 -1.37654e-019)
(291.413 2.00582 1.41213e-019)
(291.626 1.96785 -1.44428e-019)
(291.781 1.95181 1.4827e-019)
(291.878 1.96936 0)
(291.957 1.94581 0)
(292.047 1.92599 -1.60924e-019)
(292.145 1.8202 1.66163e-019)
(292.284 1.78847 0)
(292.493 1.79969 0)
(292.812 1.78044 0)
(293.248 1.76582 1.86256e-019)
(293.813 1.65831 -1.9154e-019)
(294.555 1.69992 0)
(295.483 1.68465 0)
(296.559 1.65107 2.03392e-019)
(297.725 1.61092 -2.08516e-019)
(298.833 1.52622 0)
(299.8 1.52615 0)
(300.736 1.42389 2.24248e-019)
(301.723 1.35059 -1.71187e-022)
(302.721 1.29831 -2.36602e-019)
(0.3883 -0.00140136 2.18438e-021)
(1.33167 -0.00601188 -2.25023e-021)
(3.14749 -0.0172134 0)
(6.76311 -0.0403871 0)
(12.8987 -0.0828851 0)
(21.8947 -0.145874 0)
(33.414 -0.227316 1.93835e-020)
(46.5717 -0.319921 -2.06558e-020)
(60.465 -0.420735 -1.98307e-020)
(74.4596 -0.519577 2.11873e-020)
(88.2775 -0.621315 0)
(101.811 -0.716417 -4.11365e-020)
(115.023 -0.810498 4.38872e-020)
(127.875 -0.924013 -4.22158e-020)
(140.361 -0.998679 4.49843e-020)
(152.455 -1.09771 0)
(164.164 -1.16514 0)
(175.425 -1.31605 0)
(186.299 -1.39278 0)
(196.717 -1.46607 0)
(206.638 -1.56229 0)
(216.112 -1.63589 0)
(225.139 -1.6839 0)
(233.626 -1.72546 0)
(241.509 -1.79415 -5.03312e-020)
(248.819 -1.87271 5.27265e-020)
(255.602 -1.93971 -5.22652e-020)
(261.841 -1.97674 5.49722e-020)
(267.455 -1.98714 0)
(272.379 -1.99526 0)
(276.604 -2.02336 0)
(280.211 -2.07062 0)
(283.289 -2.11786 1.19897e-019)
(285.872 -2.13745 -1.24427e-019)
(287.992 -2.10749 0)
(289.69 -2.09272 0)
(290.982 -1.99544 0)
(291.857 -1.92228 1.38376e-019)
(292.467 -1.8698 -1.42164e-019)
(292.886 -1.86552 0)
(293.162 -1.88546 -1.48739e-019)
(293.4 -1.88328 3.0548e-019)
(293.571 -1.89101 -1.56981e-019)
(293.712 -1.85698 0)
(293.852 -1.85157 -1.66193e-019)
(294 -1.80531 3.4323e-019)
(294.188 -1.75835 -3.53798e-019)
(294.406 -1.72556 1.82106e-019)
(294.699 -1.73092 0)
(295.068 -1.74019 0)
(295.55 -1.69262 0)
(296.17 -1.60677 0)
(296.912 -1.67544 0)
(297.789 -1.64746 0)
(298.748 -1.62979 -2.14553e-019)
(299.671 -1.62022 2.20859e-019)
(300.401 -1.56484 -2.25988e-019)
(301.02 -1.50621 2.3228e-019)
(301.665 -1.3719 0)
(302.281 -1.1182 0)
(0.388482 -1.00129e-005 2.26021e-021)
(1.33223 0.00213416 2.30422e-021)
(3.14891 0.01094 -4.78428e-021)
(6.7666 0.0328848 0)
(12.9063 0.0732561 9.79153e-021)
(21.909 0.135199 -1.03142e-020)
(33.4364 0.215479 0)
(46.6013 0.306195 0)
(60.4987 0.403605 0)
(74.4924 0.49929 0)
(88.3038 0.597854 0)
(101.825 0.690897 0)
(115.017 0.782561 -4.31181e-020)
(127.846 0.892516 4.59692e-020)
(140.302 0.973991 0)
(152.367 1.04449 -4.49058e-020)
(164.012 1.1658 2.19206e-021)
(175.257 1.243 9.46646e-020)
(186.062 1.36226 -4.90526e-020)
(196.417 1.44121 0)
(206.32 1.51479 0)
(215.736 1.57868 0)
(224.663 1.63043 5.0192e-020)
(233.081 1.68499 -5.30497e-020)
(240.939 1.75235 0)
(248.213 1.82724 0)
(254.913 1.8796 0)
(261.046 1.90621 0)
(266.581 1.91883 0)
(271.465 1.94104 0)
(275.668 1.99627 0)
(279.241 2.041 0)
(282.258 2.0614 0)
(284.766 2.07861 0)
(286.812 2.07947 1.31246e-019)
(288.453 1.98626 -1.35856e-019)
(289.703 1.96975 1.39118e-019)
(290.546 1.86256 -1.43782e-019)
(291.106 1.82437 1.47313e-019)
(291.481 1.89385 -1.51505e-019)
(291.725 1.83389 0)
(291.907 1.81191 -1.58843e-019)
(292.03 1.84544 3.26244e-019)
(292.124 1.82375 -6.3776e-023)
(292.22 1.73661 -1.72231e-019)
(292.317 1.69114 -1.77137e-019)
(292.431 1.66628 1.82847e-019)
(292.587 1.66573 1.88445e-019)
(292.825 1.6297 -1.94223e-019)
(293.157 1.58011 0)
(293.575 1.58461 2.04888e-019)
(294.095 1.5773 -2.10884e-019)
(294.764 1.5255 0)
(295.562 1.48843 -2.20537e-019)
(296.406 1.40854 2.2618e-019)
(297.193 1.29431 0)
(297.799 1.1476 2.36875e-019)
(298.285 1.14937 -2.43398e-019)
(298.785 1.17364 0)
(299.204 1.27714 0)
(0.387014 -0.00180469 2.33858e-021)
(1.32528 -0.00667845 2.38423e-021)
(3.12804 -0.017062 4.84857e-021)
(6.71679 -0.0374742 -1.01682e-020)
(12.8082 -0.0755799 0)
(21.7456 -0.132314 0)
(33.201 -0.20488 0)
(46.2994 -0.286744 0)
(60.1422 -0.377799 0)
(74.0938 -0.467251 2.14944e-020)
(87.8728 -0.559755 -1.19787e-021)
(101.369 -0.645357 -2.3226e-020)
(114.549 -0.731152 0)
(127.368 -0.83503 -4.52287e-020)
(139.818 -0.901276 4.81661e-020)
(151.9 -0.9904 0)
(163.549 -1.05731 0)
(174.844 -1.1913 0)
(185.652 -1.2679 -4.85182e-020)
(196.027 -1.33076 5.14842e-020)
(206.004 -1.41874 0)
(215.472 -1.4881 5.10836e-020)
(224.415 -1.5323 -5.37671e-020)
(232.883 -1.57345 0)
(240.849 -1.62918 0)
(248.238 -1.70397 0)
(255.012 -1.77318 -5.614e-020)
(261.185 -1.81249 1.45922e-021)
(266.774 -1.82386 5.97813e-020)
(271.768 -1.82528 0)
(276.122 -1.83074 0)
(279.848 -1.87841 -6.32751e-020)
(282.989 -1.94576 6.54556e-020)
(285.583 -1.96901 0)
(287.681 -1.9418 0)
(289.376 -1.92948 0)
(290.693 -1.88291 0)
(291.621 -1.78143 0)
(292.31 -1.74945 0)
(292.785 -1.68922 0)
(293.102 -1.71297 0)
(293.386 -1.75325 0)
(293.576 -1.74386 1.68731e-019)
(293.707 -1.71602 -1.73162e-019)
(293.836 -1.69184 0)
(293.973 -1.69024 0)
(294.134 -1.65468 0)
(294.301 -1.58391 -1.93278e-019)
(294.517 -1.57341 1.99405e-019)
(294.8 -1.58492 0)
(295.164 -1.5573 0)
(295.613 -1.50913 0)
(296.15 -1.46085 0)
(296.792 -1.4551 0)
(297.488 -1.45069 0)
(298.135 -1.42264 2.40058e-019)
(298.581 -1.42311 -2.46519e-019)
(298.848 -1.27611 -2.52577e-019)
(299.09 -1.06101 2.59234e-019)
(299.212 -1.04809 -2.66051e-019)
(0.386942 -0.000808559 0)
(1.3249 -0.00039863 4.95929e-021)
(3.12723 0.00580331 -5.24868e-023)
(6.71582 0.0245702 -1.55874e-020)
(12.8084 0.0599429 1.07913e-020)
(21.7491 0.116629 0)
(33.2101 0.18958 -2.14783e-020)
(46.3136 0.271002 2.28843e-020)
(60.1597 0.358965 0)
(74.1103 0.445712 0)
(87.8839 0.535449 0)
(101.37 0.620356 -2.27977e-020)
(114.529 0.704189 4.7413e-020)
(127.329 0.807462 -2.46184e-020)
(139.756 0.878426 -4.74373e-020)
(151.802 0.951577 5.05185e-020)
(163.406 1.0537 0)
(174.658 1.14488 0)
(185.432 1.23881 5.02271e-020)
(195.758 1.30843 -5.32958e-020)
(205.682 1.38504 0)
(215.105 1.44329 0)
(223.998 1.48875 0)
(232.401 1.53653 5.47455e-020)
(240.299 1.60116 -5.78585e-020)
(247.63 1.67466 -5.71678e-020)
(254.357 1.72956 5.9807e-020)
(260.484 1.7588 0)
(266.017 1.76928 -6.05562e-020)
(270.943 1.78321 6.34214e-020)
(275.231 1.83278 0)
(278.901 1.85527 0)
(281.997 1.92568 0)
(284.557 1.93447 -6.85018e-020)
(286.626 1.92594 7.07347e-020)
(288.284 1.84311 0)
(289.573 1.84375 0)
(290.457 1.7276 0)
(291.062 1.69494 0)
(291.486 1.77241 1.61875e-019)
(291.759 1.67656 -3.33012e-019)
(291.972 1.70709 1.70972e-019)
(292.124 1.71825 1.75145e-019)
(292.223 1.68655 -1.79758e-019)
(292.307 1.62323 0)
(292.387 1.5666 0)
(292.486 1.56824 0)
(292.603 1.51462 0)
(292.776 1.49442 2.067e-019)
(293.04 1.47857 -2.13144e-019)
(293.381 1.50646 0)
(293.799 1.47535 2.24839e-019)
(294.333 1.41918 -2.31561e-019)
(294.983 1.3492 -2.37051e-019)
(295.691 1.35367 8.26555e-022)
(296.353 1.26598 2.49846e-019)
(296.853 1.05986 -2.55145e-019)
(297.198 1.05523 2.62252e-019)
(297.468 1.08061 2.68542e-019)
(297.615 0.69968 -5.51712e-019)
(0.385748 -0.00216096 0)
(1.31916 -0.00723512 0)
(3.10967 -0.0168027 0)
(6.67324 -0.0345089 0)
(12.7233 -0.0682963 0)
(21.6057 -0.11886 0)
(33.0012 -0.184707 2.2228e-020)
(46.0438 -0.257566 -2.36792e-020)
(59.8391 -0.339428 0)
(73.7502 -0.419942 0)
(87.4929 -0.503765 -2.33019e-020)
(100.955 -0.580079 2.48714e-020)
(114.103 -0.658107 0)
(126.891 -0.752282 0)
(139.312 -0.813512 0)
(151.368 -0.888634 0)
(162.995 -0.966898 0)
(174.265 -1.07377 0)
(185.054 -1.15334 0)
(195.417 -1.20403 0)
(205.375 -1.28284 0)
(214.826 -1.34649 -5.46885e-020)
(223.772 -1.38663 5.76053e-020)
(232.251 -1.42477 0)
(240.221 -1.47815 0)
(247.607 -1.54825 0)
(254.388 -1.61316 6.00706e-020)
(260.591 -1.65052 -6.27725e-020)
(266.228 -1.66156 0)
(271.273 -1.66628 0)
(275.665 -1.66397 0)
(279.42 -1.7389 0)
(282.591 -1.75821 0)
(285.223 -1.79323 0)
(287.367 -1.77133 0)
(289.12 -1.77091 0)
(290.493 -1.70535 0)
(291.47 -1.62417 0)
(292.205 -1.60014 0)
(292.687 -1.52426 0)
(293.004 -1.59495 0)
(293.295 -1.62498 0)
(293.481 -1.61411 -1.80352e-019)
(293.606 -1.59657 1.85164e-019)
(293.731 -1.55641 0)
(293.87 -1.5475 0)
(294.023 -1.48011 0)
(294.173 -1.45366 0)
(294.369 -1.42775 0)
(294.628 -1.41774 2.19906e-019)
(294.956 -1.40741 -2.26422e-019)
(295.348 -1.37864 0)
(295.828 -1.31706 0)
(296.429 -1.31344 0)
(297.089 -1.23813 0)
(297.703 -1.20204 0)
(298.185 -1.21227 0)
(298.5 -1.11045 0)
(298.687 -1.05185 0)
(298.746 -1.35593 0)
(0.385504 -0.00150073 0)
(1.31811 -0.00260927 0)
(3.1072 0.00118976 0)
(6.66883 0.0167931 0)
(12.7175 0.0472525 0)
(21.6006 0.0985815 0)
(32.9995 0.166053 0)
(46.0457 0.239809 0)
(59.8435 0.318984 0)
(73.7537 0.397258 0)
(87.4919 0.478644 0)
(100.945 0.555516 0)
(114.073 0.631753 0)
(126.845 0.72778 0)
(139.247 0.787835 0)
(151.269 0.862571 0)
(162.851 0.950336 0)
(174.082 1.05357 0)
(184.844 1.123 0)
(195.161 1.18971 0)
(205.073 1.26773 0)
(214.489 1.31468 0)
(223.387 1.35381 0)
(231.8 1.39731 0)
(239.706 1.46041 0)
(247.044 1.53331 0)
(253.789 1.5891 0)
(259.952 1.61673 0)
(265.534 1.62489 0)
(270.511 1.63671 0)
(274.84 1.67265 0)
(278.547 1.7174 0)
(281.687 1.77125 0)
(284.3 1.78497 0)
(286.424 1.76788 -7.50916e-020)
(288.14 1.70938 7.76767e-020)
(289.494 1.69306 0)
(290.423 1.5862 0)
(291.065 1.56506 0)
(291.51 1.63206 0)
(291.782 1.56494 8.90535e-020)
(292.009 1.61401 -9.13732e-020)
(292.175 1.61155 0)
(292.278 1.57747 0)
(292.355 1.51247 0)
(292.434 1.4489 0)
(292.534 1.4321 -1.04217e-019)
(292.64 1.39608 1.07501e-019)
(292.798 1.386 0)
(293.044 1.36576 0)
(293.372 1.4032 0)
(293.783 1.38332 0)
(294.296 1.36466 0)
(294.941 1.319 0)
(295.679 1.35128 0)
(296.392 1.28951 0)
(296.995 1.11442 0)
(297.456 1.00899 0)
(297.765 0.922656 0)
(297.964 0.587881 0)
(0.384513 -0.00249076 -2.67919e-021)
(1.3133 -0.00776304 8.25144e-021)
(3.09232 -0.0166177 -5.67095e-021)
(6.63228 -0.0318213 0)
(12.6437 -0.0614946 0)
(21.4746 -0.106105 0)
(32.8138 -0.165386 0)
(45.8038 -0.231958 -2.40705e-020)
(59.5545 -0.305287 2.56932e-020)
(73.4277 -0.37728 2.46464e-020)
(87.1363 -0.452874 -2.63169e-020)
(100.567 -0.520159 -2.52673e-020)
(113.685 -0.590842 2.69487e-020)
(126.444 -0.674786 0)
(138.837 -0.729851 2.62913e-020)
(150.87 -0.793497 -2.79883e-020)
(162.475 -0.881755 0)
(173.722 -0.964987 0)
(184.492 -1.04632 -5.56597e-020)
(194.842 -1.0887 2.43947e-021)
(204.785 -1.15888 6.01266e-020)
(214.224 -1.21357 0)
(223.168 -1.25053 0)
(231.651 -1.28567 6.07203e-020)
(239.627 -1.33543 -6.41321e-020)
(247.018 -1.3961 0)
(253.81 -1.45615 0)
(260.036 -1.49437 0)
(265.706 -1.50843 0)
(270.792 -1.50914 0)
(275.224 -1.5131 0)
(279.015 -1.56978 0)
(282.22 -1.59816 -7.39646e-020)
(284.89 -1.62819 7.63862e-020)
(287.076 -1.61205 -7.75394e-020)
(288.874 -1.627 1.59952e-019)
(290.293 -1.54858 -8.24404e-020)
(291.314 -1.48767 0)
(292.092 -1.46192 -8.70534e-020)
(292.587 -1.39594 1.79247e-019)
(292.907 -1.48861 -9.20018e-020)
(293.203 -1.4955 0)
(293.385 -1.49885 9.64828e-020)
(293.507 -1.4767 -1.98089e-019)
(293.628 -1.43088 1.0176e-019)
(293.769 -1.39587 -1.04543e-019)
(293.921 -1.34836 1.07651e-019)
(294.068 -1.33276 0)
(294.256 -1.30751 0)
(294.513 -1.29579 0)
(294.838 -1.26402 -1.21017e-019)
(295.225 -1.2332 1.2457e-019)
(295.703 -1.16213 -1.2758e-019)
(296.323 -1.1607 1.31121e-019)
(297.02 -1.04253 0)
(297.68 -1.01933 0)
(298.262 -1.02068 0)
(298.72 -0.968349 0)
(299.006 -0.907074 0)
(299.129 -0.996237 0)
(0.384158 -0.00208627 -2.77158e-021)
(1.31181 -0.00448148 -2.82598e-021)
(3.08867 -0.00280091 5.86649e-021)
(6.62532 0.00979739 0)
(12.6333 0.0355882 0)
(21.4626 0.0815761 0)
(32.8035 0.143564 0)
(45.796 0.212188 -1.24508e-020)
(59.5487 0.28327 3.84836e-020)
(73.4209 0.353498 -1.41024e-021)
(87.1259 0.426946 -1.41356e-021)
(100.549 0.495997 -5.36904e-020)
(113.647 0.565139 1.40023e-021)
(126.394 0.653814 1.38891e-021)
(138.771 0.704458 2.8577e-020)
(150.769 0.782229 -2.76021e-020)
(162.331 0.852389 2.92994e-020)
(173.544 0.97281 -2.84745e-020)
(184.294 1.01339 3.00944e-020)
(194.601 1.07855 0)
(204.502 1.15964 0)
(213.913 1.19625 0)
(222.813 1.22847 0)
(231.234 1.26727 -6.28416e-020)
(239.147 1.32847 6.63846e-020)
(246.495 1.3981 0)
(253.258 1.45424 0)
(259.452 1.48098 0)
(265.074 1.48739 6.94935e-020)
(270.096 1.49279 -1.44192e-019)
(274.464 1.52051 1.3027e-021)
(278.211 1.57608 7.62108e-020)
(281.395 1.62773 0)
(284.057 1.6408 0)
(286.23 1.61799 8.03572e-020)
(287.999 1.58739 -8.31474e-020)
(289.411 1.54941 -8.49627e-020)
(290.378 1.45647 8.79289e-020)
(291.058 1.43332 0)
(291.522 1.48374 9.27536e-020)
(291.799 1.47314 -9.53972e-020)
(292.043 1.49852 0)
(292.221 1.50314 0)
(292.33 1.4648 1.02709e-019)
(292.404 1.40301 -1.05543e-019)
(292.478 1.35627 0)
(292.572 1.31705 0)
(292.669 1.29594 0)
(292.813 1.27333 1.18571e-019)
(293.041 1.26407 -1.2219e-019)
(293.355 1.28242 0)
(293.753 1.27589 0)
(294.236 1.28579 -1.32297e-019)
(294.865 1.25602 1.35985e-019)
(295.611 1.26562 0)
(296.341 1.21934 -1.41849e-019)
(297.006 1.13074 3.9443e-022)
(297.553 1.05452 2.9824e-019)
(297.926 0.948085 -1.52894e-019)
(298.135 0.709987 1.56811e-019)
(0.383318 -0.00279943 0)
(1.30772 -0.00828799 0)
(3.07595 -0.0165658 0)
(6.59379 -0.0295461 0)
(12.5689 -0.0553941 -1.24294e-020)
(21.3516 -0.0943371 1.30852e-020)
(32.6381 -0.147222 0)
(45.5787 -0.207641 0)
(59.2873 -0.274412 0)
(73.1249 -0.33882 0)
(86.8016 -0.406645 0)
(100.202 -0.465152 0)
(113.293 -0.528658 0)
(126.024 -0.602892 0)
(138.392 -0.653695 0)
(150.402 -0.706907 0)
(161.988 -0.801113 0)
(173.213 -0.867522 0)
(183.965 -0.945529 0)
(194.303 -0.981461 0)
(204.231 -1.04486 0)
(213.659 -1.09027 0)
(222.6 -1.12325 0)
(231.086 -1.15577 0)
(239.068 -1.1979 0)
(246.465 -1.25172 0)
(253.268 -1.30596 0)
(259.512 -1.34407 0)
(265.21 -1.36112 0)
(270.332 -1.36123 0)
(274.805 -1.37081 0)
(278.632 -1.40466 0)
(281.871 -1.43659 0)
(284.576 -1.46711 8.0916e-020)
(286.799 -1.46618 -1.66682e-019)
(288.635 -1.48461 8.58832e-020)
(290.096 -1.41648 8.77692e-020)
(291.16 -1.35699 -9.0842e-020)
(291.975 -1.32297 0)
(292.491 -1.27125 0)
(292.816 -1.35315 0)
(293.112 -1.3644 0)
(293.292 -1.37377 0)
(293.411 -1.35171 0)
(293.53 -1.31655 0)
(293.665 -1.29024 0)
(293.811 -1.23913 1.15127e-019)
(293.947 -1.20989 -1.18859e-019)
(294.114 -1.19792 1.22464e-019)
(294.349 -1.177 -1.26214e-019)
(294.649 -1.13181 0)
(295.01 -1.08454 0)
(295.453 -1.02371 0)
(296.037 -0.983615 0)
(296.717 -0.884557 0)
(297.376 -0.817845 -1.46402e-019)
(297.983 -0.776021 1.50252e-019)
(298.489 -0.719718 0)
(298.818 -0.730065 0)
(298.946 -0.936072 0)
(0.382897 -0.00257618 0)
(1.30595 -0.00604169 0)
(3.07151 -0.0061782 0)
(6.585 0.00365126 0)
(12.5551 0.0250909 1.28576e-020)
(21.3343 0.0658573 -1.35357e-020)
(32.621 0.122397 0)
(45.5631 0.185955 0)
(59.2735 0.250905 1.3484e-020)
(73.1102 0.314006 -1.44001e-020)
(86.784 0.379931 -2.76329e-020)
(100.178 0.441294 5.74744e-020)
(113.249 0.503679 -2.98455e-020)
(125.971 0.586874 0)
(138.326 0.627943 0)
(150.302 0.710065 0)
(161.845 0.764957 -2.99385e-020)
(173.043 0.901481 6.23903e-020)
(183.779 0.911875 -3.22175e-020)
(194.076 0.975407 0)
(203.969 1.06179 0)
(213.375 1.09033 0)
(222.274 1.11172 0)
(230.699 1.14639 0)
(238.622 1.20334 0)
(245.983 1.27215 0)
(252.764 1.32701 0)
(258.982 1.35135 -7.2676e-020)
(264.634 1.35324 7.61154e-020)
(269.694 1.35645 0)
(274.105 1.3767 0)
(277.895 1.43447 0)
(281.123 1.48656 0)
(283.831 1.50241 0)
(286.045 1.47676 0)
(287.859 1.46243 0)
(289.319 1.40936 0)
(290.323 1.31905 0)
(291.04 1.30628 -9.64957e-020)
(291.528 1.3376 9.94604e-020)
(291.817 1.37969 0)
(292.078 1.37881 0)
(292.274 1.39708 1.0707e-019)
(292.391 1.36138 -1.09921e-019)
(292.464 1.31869 0)
(292.536 1.28419 1.1595e-019)
(292.629 1.24031 -1.19321e-019)
(292.718 1.19627 0)
(292.848 1.17133 0)
(293.062 1.16511 0)
(293.359 1.16798 0)
(293.735 1.16774 -1.37889e-019)
(294.183 1.1923 1.41934e-019)
(294.78 1.1929 1.45068e-019)
(295.511 1.19426 -4.80375e-022)
(296.236 1.17929 -1.52156e-019)
(296.917 1.13928 1.55125e-019)
(297.494 1.09296 -1.59538e-019)
(297.881 0.944999 1.63198e-019)
(298.074 0.553716 -3.35143e-019)
(0.382169 -0.00308671 0)
(1.30242 -0.00881119 3.14409e-021)
(3.06052 -0.0166523 -3.2466e-021)
(6.55761 -0.0277213 0)
(12.4987 -0.0500887 0)
(21.2363 -0.0836935 0)
(32.4733 -0.130361 0)
(45.3676 -0.184756 0)
(59.0366 -0.245232 1.39518e-020)
(72.8407 -0.303851 -1.4898e-020)
(86.4874 -0.364635 0)
(99.8598 -0.414669 0)
(112.925 -0.471534 2.93345e-020)
(125.631 -0.536493 -3.12616e-020)
(137.975 -0.583519 -3.01358e-020)
(149.964 -0.628203 1.49949e-021)
(161.53 -0.731768 3.24519e-020)
(172.736 -0.772966 0)
(183.469 -0.853245 3.19024e-020)
(193.796 -0.881822 -3.38716e-020)
(203.713 -0.934822 0)
(213.13 -0.979326 3.35732e-020)
(222.066 -1.00638 -6.9454e-020)
(230.553 -1.0352 3.60369e-020)
(238.542 -1.06808 -3.55839e-020)
(245.948 -1.11238 3.73823e-020)
(252.761 -1.15977 -7.37339e-020)
(259.018 -1.19763 1.94843e-021)
(264.738 -1.22254 7.87085e-020)
(269.893 -1.2236 0)
(274.406 -1.23663 0)
(278.271 -1.24842 0)
(281.543 -1.27543 -8.47759e-020)
(284.28 -1.30771 8.75463e-020)
(286.537 -1.32491 0)
(288.404 -1.34019 -9.12777e-020)
(289.901 -1.28461 9.44115e-020)
(291.007 -1.23354 -9.67926e-020)
(291.858 -1.2059 2.98333e-022)
(292.4 -1.16952 2.37818e-022)
(292.73 -1.22343 1.31757e-022)
(293.027 -1.24078 9.98245e-023)
(293.211 -1.24081 1.10583e-019)
(293.332 -1.23927 -1.13376e-019)
(293.452 -1.22116 1.16506e-019)
(293.583 -1.20187 0)
(293.725 -1.15582 0)
(293.859 -1.11809 0)
(294.017 -1.10214 0)
(294.239 -1.06567 0)
(294.526 -1.01127 0)
(294.878 -0.950412 -1.42437e-019)
(295.301 -0.876844 2.92836e-019)
(295.856 -0.786025 -4.05666e-022)
(296.529 -0.716368 -1.53473e-019)
(297.198 -0.629054 0)
(297.831 -0.556016 0)
(298.374 -0.497028 0)
(298.724 -0.549717 0)
(298.861 -0.745501 -1.72977e-019)
(0.381715 -0.00298451 0)
(1.3005 -0.00733001 -3.25212e-021)
(3.05559 -0.0089963 1.00073e-020)
(6.54761 -0.00166006 -6.89809e-021)
(12.4825 0.0157869 0)
(21.2151 0.0515265 1.39369e-020)
(32.451 0.102658 -2.88716e-020)
(45.346 0.161226 1.50145e-020)
(59.0167 0.220355 1.44317e-020)
(72.82 0.278099 -1.54107e-020)
(86.4648 0.337157 -1.47884e-020)
(99.8314 0.39103 4.57352e-020)
(112.878 0.446694 -6.22894e-020)
(125.577 0.522855 3.23392e-020)
(137.91 0.556777 0)
(149.865 0.645759 0)
(161.389 0.686432 0)
(172.574 0.832974 -3.26432e-020)
(183.296 0.817685 3.44864e-020)
(193.583 0.878727 -3.35961e-020)
(203.469 0.967991 3.5667e-020)
(212.873 0.993234 3.47564e-020)
(221.769 1.00532 -3.66011e-020)
(230.196 1.03373 0)
(238.128 1.08853 0)
(245.503 1.15654 0)
(252.301 1.20994 0)
(258.538 1.22991 0)
(264.216 1.22621 0)
(269.311 1.22703 -8.17125e-020)
(273.764 1.23911 8.54698e-020)
(277.598 1.29552 -8.60318e-020)
(280.867 1.34881 8.90117e-020)
(283.616 1.37071 0)
(285.867 1.3354 9.19782e-020)
(287.721 1.33116 -9.51751e-020)
(289.224 1.2878 9.72087e-020)
(290.263 1.20477 -1.00611e-019)
(291.014 1.20018 0)
(291.53 1.21601 -1.06161e-019)
(291.834 1.26581 1.43621e-022)
(292.112 1.27335 9.86881e-023)
(292.323 1.29034 1.14649e-019)
(292.448 1.25432 0)
(292.524 1.20253 0)
(292.6 1.16796 -1.2401e-019)
(292.698 1.1288 1.27582e-019)
(292.788 1.09065 0)
(292.915 1.07403 1.35607e-019)
(293.128 1.06299 -2.79455e-019)
(293.424 1.06426 1.83443e-022)
(293.798 1.06452 1.47801e-019)
(294.241 1.09314 0)
(294.826 1.12755 0)
(295.563 1.118 1.5855e-019)
(296.317 1.11994 -3.2495e-019)
(297.038 1.10837 4.94541e-022)
(297.67 1.07865 3.40544e-019)
(298.113 0.957681 -1.74543e-019)
(298.332 0.731963 0)
(0.381072 -0.00335092 0)
(1.2974 -0.00932389 -3.36377e-021)
(3.046 -0.0168579 3.47337e-021)
(6.52363 -0.0263326 -7.00764e-021)
(12.4329 -0.0455843 7.31893e-021)
(21.1282 -0.0742138 0)
(32.3189 -0.114881 1.45873e-020)
(45.1696 -0.163356 -3.02879e-020)
(58.8015 -0.217802 1.57461e-020)
(72.574 -0.270844 1.51128e-020)
(86.1926 -0.326172 -1.61329e-020)
(99.5387 -0.368331 0)
(112.579 -0.419114 0)
(125.261 -0.476519 0)
(137.584 -0.519557 0)
(149.553 -0.556797 3.27322e-020)
(161.102 -0.667491 -6.78891e-020)
(172.288 -0.678857 6.91038e-020)
(183.003 -0.768031 -6.9819e-020)
(193.322 -0.789943 3.62544e-020)
(203.226 -0.831737 3.5439e-020)
(212.633 -0.872789 -3.7357e-020)
(221.564 -0.89928 0)
(230.053 -0.924471 0)
(238.047 -0.952649 0)
(245.462 -0.988352 0)
(252.284 -1.02744 0)
(258.553 -1.06337 0)
(264.292 -1.09287 4.11493e-020)
(269.477 -1.09437 -8.53934e-020)
(274.027 -1.10679 4.41928e-020)
(277.929 -1.10262 0)
(281.233 -1.12009 0)
(283.999 -1.15106 -9.27073e-020)
(286.288 -1.18729 8.41814e-022)
(288.184 -1.19737 6.84916e-022)
(289.715 -1.16191 5.69365e-022)
(290.861 -1.12863 4.34121e-022)
(291.743 -1.084 1.06967e-019)
(292.313 -1.0573 -1.09704e-019)
(292.652 -1.09165 2.25536e-019)
(292.947 -1.11104 -1.15534e-019)
(293.136 -1.11621 0)
(293.261 -1.12847 0)
(293.385 -1.09531 1.246e-019)
(293.517 -1.05231 -1.28074e-019)
(293.662 -1.02473 0)
(293.802 -1.02151 -1.35818e-019)
(293.961 -1.00331 2.80279e-019)
(294.184 -0.962322 -1.44439e-019)
(294.476 -0.895651 1.48384e-019)
(294.842 -0.829982 -1.52703e-019)
(295.277 -0.749203 -1.56502e-019)
(295.833 -0.64661 1.60858e-019)
(296.526 -0.582872 1.63785e-019)
(297.246 -0.499308 -1.68109e-019)
(297.943 -0.406291 0)
(298.567 -0.324761 0)
(299.009 -0.314843 0)
(299.21 -0.464114 0)
(0.380606 -0.00332496 0)
(1.29541 -0.00838878 0)
(3.04081 -0.0113263 0)
(6.51289 -0.00619692 0)
(12.415 0.00763444 0)
(21.1042 0.0385934 0)
(32.2926 0.0844087 0)
(45.1435 0.138036 0)
(58.7769 0.191628 0)
(72.5489 0.244273 0)
(86.1665 0.298002 0)
(99.5077 0.344886 0)
(112.53 0.394463 0)
(125.207 0.463608 0)
(137.521 0.491862 0)
(149.455 0.588338 0)
(160.964 0.612492 0)
(172.135 0.765816 0)
(182.844 0.730117 0)
(193.123 0.787941 0)
(203.002 0.878983 0)
(212.401 0.898859 0)
(221.296 0.906179 -3.77598e-020)
(229.725 0.930375 3.99e-020)
(237.665 0.982692 0)
(245.053 1.0488 0)
(251.866 1.10057 0)
(258.12 1.11789 0)
(263.823 1.10629 0)
(268.95 1.1032 0)
(273.442 1.10806 0)
(277.316 1.16236 0)
(280.622 1.21548 -4.7018e-020)
(283.407 1.24321 4.8543e-020)
(285.695 1.20083 0)
(287.587 1.21135 0)
(289.129 1.17615 0)
(290.203 1.09523 0)
(290.989 1.08753 0)
(291.532 1.09546 0)
(291.85 1.13871 0)
(292.144 1.17064 1.1961e-019)
(292.369 1.18697 -1.22648e-019)
(292.505 1.14055 0)
(292.589 1.06045 0)
(292.671 1.02712 0)
(292.774 0.984477 0)
(292.874 0.975632 -1.40543e-019)
(293.014 0.970247 1.45069e-019)
(293.24 0.954232 0)
(293.549 0.955387 0)
(293.94 0.965073 0)
(294.404 0.989291 0)
(295.001 1.02246 0)
(295.765 1.01384 0)
(296.578 1.01902 0)
(297.373 1.03597 0)
(298.098 1.04651 0)
(298.644 0.980517 0)
(298.938 0.762655 0)
(0.380027 -0.00359069 0)
(1.29266 -0.00981509 0)
(3.03235 -0.0171543 3.67874e-021)
(6.49174 -0.0253374 -3.81616e-021)
(12.3711 -0.0418349 0)
(21.0268 -0.0658746 0)
(32.1741 -0.100781 0)
(44.984 -0.143449 0)
(58.581 -0.192109 -1.59771e-020)
(72.3239 -0.239802 3.32295e-020)
(85.916 -0.289836 -1.72622e-020)
(99.2374 -0.325665 0)
(112.255 -0.370755 0)
(124.915 -0.419324 0)
(137.218 -0.461041 0)
(149.167 -0.487367 -3.50317e-020)
(160.7 -0.605176 1.68441e-021)
(171.868 -0.587746 3.78112e-020)
(182.566 -0.689035 0)
(192.877 -0.7037 0)
(202.77 -0.736117 3.79321e-020)
(212.166 -0.77362 -3.99829e-020)
(221.094 -0.799726 0)
(229.584 -0.822444 0)
(237.583 -0.846523 0)
(245.004 -0.87386 0)
(251.833 -0.905621 4.22456e-020)
(258.114 -0.939831 -1.12261e-021)
(263.873 -0.969644 -4.50723e-020)
(269.086 -0.972504 0)
(273.669 -0.981422 0)
(277.605 -0.966437 0)
(280.936 -0.972692 0)
(283.729 -1.00121 4.96004e-020)
(286.05 -1.05592 -4.57962e-022)
(287.977 -1.06278 -1.0483e-019)
(289.54 -1.0419 5.40254e-020)
(290.723 -1.05408 0)
(291.635 -0.974597 5.704e-020)
(292.231 -0.949161 -5.88273e-020)
(292.581 -0.977855 -1.20577e-019)
(292.875 -0.984296 1.2363e-019)
(293.067 -0.997728 0)
(293.194 -1.01315 0)
(293.325 -0.98024 0)
(293.463 -0.943121 0)
(293.617 -0.920868 0)
(293.768 -0.908806 0)
(293.933 -0.903552 -1.49823e-019)
(294.164 -0.876761 1.51847e-022)
(294.472 -0.808302 3.17654e-019)
(294.861 -0.742044 -2.82249e-022)
(295.321 -0.666809 -1.67814e-019)
(295.893 -0.576036 0)
(296.62 -0.511094 0)
(297.406 -0.415897 -1.79187e-019)
(298.188 -0.299241 1.8365e-019)
(298.912 -0.185095 0)
(299.467 -0.147095 1.924e-019)
(299.761 -0.315789 -1.97603e-019)
(0.379564 -0.00360963 0)
(1.29067 -0.00925774 0)
(3.02707 -0.013242 -3.80475e-021)
(6.48063 -0.010042 1.17006e-020)
(12.3523 0.000549013 -2.22861e-022)
(21.0009 0.0270084 -1.62642e-020)
(32.145 0.0676652 1.65244e-020)
(44.9545 0.116389 -8.5929e-021)
(58.553 0.164699 0)
(72.2957 0.212497 0)
(85.8877 0.261109 1.69352e-020)
(99.2052 0.302456 -1.80687e-020)
(112.205 0.346805 1.73774e-020)
(124.862 0.412556 -1.85161e-020)
(137.157 0.432692 0)
(149.071 0.534155 0)
(160.567 0.540487 0)
(171.725 0.701347 0)
(182.42 0.647722 0)
(192.693 0.703408 -3.84859e-020)
(202.564 0.797734 4.08569e-020)
(211.957 0.811492 0)
(220.851 0.813824 0)
(229.285 0.834328 -4.12428e-020)
(237.233 0.884278 4.35816e-020)
(244.63 0.94775 0)
(251.455 0.997686 -4.374e-020)
(257.726 1.01275 9.02439e-020)
(263.453 0.992452 -4.66398e-020)
(268.612 0.985308 0)
(273.14 0.982355 0)
(277.05 1.03614 -4.92511e-020)
(280.388 1.08957 5.09702e-020)
(283.204 1.12161 5.13612e-020)
(285.527 1.07672 -4.77125e-022)
(287.457 1.09167 -5.4457e-020)
(289.033 1.04878 5.56076e-020)
(290.145 0.987532 -2.49482e-022)
(290.966 0.969355 -1.83837e-022)
(291.532 0.977902 -1.54742e-022)
(291.866 1.02107 -1.24917e-019)
(292.171 1.07134 1.27984e-019)
(292.407 1.08079 -5.52606e-023)
(292.554 1.04042 -1.34453e-019)
(292.648 0.970029 6.90454e-020)
(292.735 0.948611 0)
(292.846 0.926453 -1.45793e-019)
(292.958 0.881248 3.00659e-019)
(293.11 0.864796 -1.55123e-019)
(293.351 0.849282 0)
(293.676 0.847848 1.64263e-019)
(294.088 0.852738 -1.69033e-019)
(294.574 0.86007 0)
(295.187 0.887071 0)
(295.981 0.881748 -1.81386e-019)
(296.851 0.910443 3.71489e-019)
(297.721 0.95278 -1.89997e-019)
(298.537 0.997093 0)
(299.182 0.964469 0)
(299.561 0.738727 0)
(0.379037 -0.00380559 0)
(1.2882 -0.0102753 0)
(3.01952 -0.0175113 3.93501e-021)
(6.46182 -0.0246783 -4.08181e-021)
(12.3132 -0.0387659 8.14468e-021)
(20.9318 -0.0586109 -8.57047e-021)
(32.0384 -0.0880115 0)
(44.8099 -0.125009 0)
(58.3742 -0.168108 1.70942e-020)
(72.0894 -0.210679 -1.82488e-020)
(85.6566 -0.255623 0)
(98.9549 -0.286407 1.77443e-020)
(111.951 -0.326142 -1.8918e-020)
(124.589 -0.364653 1.82205e-020)
(136.875 -0.407967 -1.9394e-020)
(148.805 -0.423253 0)
(160.323 -0.545465 0)
(171.473 -0.500709 3.86852e-020)
(182.155 -0.616317 -7.99591e-020)
(192.461 -0.622923 1.70548e-021)
(202.342 -0.642844 4.22627e-020)
(211.727 -0.680007 4.11687e-020)
(220.652 -0.708125 -4.33579e-020)
(229.144 -0.729282 0)
(237.147 -0.748933 0)
(244.573 -0.767746 4.44681e-020)
(251.408 -0.792011 -4.64988e-020)
(257.7 -0.82437 0)
(263.479 -0.854058 0)
(268.717 -0.861578 -4.83831e-020)
(273.332 -0.865179 1.00305e-019)
(277.297 -0.838206 -5.17112e-020)
(280.655 -0.832967 0)
(283.473 -0.860287 0)
(285.823 -0.93117 0)
(287.78 -0.940167 5.58713e-020)
(289.375 -0.920205 -3.39396e-022)
(290.592 -0.967011 -2.62881e-022)
(291.532 -0.86965 -6.12138e-020)
(292.153 -0.8417 0)
(292.515 -0.86655 -6.44947e-020)
(292.808 -0.861704 6.61251e-020)
(293.001 -0.880535 -6.76601e-020)
(293.131 -0.909372 1.38849e-019)
(293.269 -0.903528 -3.45717e-023)
(293.414 -0.874135 -2.95457e-023)
(293.572 -0.846665 -7.53386e-020)
(293.729 -0.819652 0)
(293.9 -0.8442 -8.01183e-020)
(294.137 -0.820215 7.51694e-023)
(294.456 -0.726951 8.49901e-020)
(294.861 -0.682794 0)
(295.339 -0.624795 0)
(295.921 -0.541931 1.8363e-019)
(296.669 -0.467801 -3.75338e-019)
(297.504 -0.34911 1.92196e-019)
(298.351 -0.220521 0)
(299.155 -0.0899298 0)
(299.797 -0.03592 -2.05597e-019)
(300.168 -0.206021 1.41783e-022)
(0.378586 -0.00384856 0)
(1.28624 -0.00997171 0)
(3.01428 -0.0148133 4.06959e-021)
(6.45063 -0.0132859 -4.22134e-021)
(12.294 -0.0055774 8.42343e-021)
(20.9048 0.0166848 -1.73974e-020)
(32.0075 0.0523737 1.76764e-020)
(44.7782 0.0962689 -9.19167e-021)
(58.3439 0.139526 0)
(72.059 0.182719 0)
(85.6271 0.226448 1.81192e-020)
(98.9223 0.263415 -1.93307e-020)
(111.902 0.30261 0)