/*--------------------------------*- C++ -*----------------------------------*\
| =========                 |                                                 |
| \\      /  F ield         | OpenFOAM: The Open Source CFD Toolbox           |
|  \\    /   O peration     | Version:  5.x                                   |
|   \\  /    A nd           | Web:      www.OpenFOAM.org                      |
|    \\/     M anipulation  |                                                 |
\*---------------------------------------------------------------------------*/
/*   Windows 32 and 64 bit porting by blueCAPE: http://www.bluecape.com.pt   *\
|  Based on Windows porting (2.0.x v4) by Symscape: http://www.symscape.com   |
\*---------------------------------------------------------------------------*/
FoamFile
{
    version     2.0;
    format      ascii;
    class       volScalarField;
    location    "0.009";
    object      mag(U);
}
// * * * * * * * * * * * * * * * * * * * * * * * * * * * * * * * * * * * * * //

dimensions      [0 1 -1 0 0 0 0];

internalField   nonuniform List<scalar> 
10000
(
0.0511504
0.210979
0.630426
1.68597
3.98714
8.37727
15.6053
25.8644
38.612
52.8197
67.5828
82.3255
96.8218
110.983
124.776
138.155
151.117
163.613
175.683
187.223
198.264
208.828
218.824
228.181
236.939
245.135
252.703
259.523
265.546
270.82
275.414
279.362
282.68
285.362
287.354
288.753
289.753
290.5
291.047
291.415
291.674
291.847
291.961
292.045
292.156
292.329
292.568
292.924
293.447
294.139
295.006
296.05
297.276
298.679
300.23
301.926
303.854
305.663
307.415
308.675
0.0508267
0.209172
0.623792
1.6663
3.93828
8.27505
15.4237
25.5869
38.24
52.3696
67.0754
81.7785
96.2485
110.394
124.183
137.568
150.541
163.065
175.169
186.748
197.845
208.473
218.53
227.958
236.812
245.117
252.79
259.713
265.847
271.248
275.989
280.093
283.554
286.37
288.491
290.018
291.124
291.969
292.632
293.101
293.447
293.705
293.901
294.039
294.161
294.303
294.486
294.736
295.063
295.498
296.057
296.728
297.517
298.442
299.487
300.605
301.99
303.307
304.582
305.381
0.0508265
0.209146
0.623726
1.66629
3.93885
8.27736
15.4299
25.5994
38.2592
52.3926
67.0973
81.7925
96.2473
110.371
124.127
137.479
150.404
162.898
174.911
186.459
197.511
208.03
218.017
227.422
236.213
244.401
251.964
258.83
264.941
270.302
274.961
278.955
282.325
285.084
287.171
288.656
289.724
290.525
291.121
291.538
291.826
292.027
292.155
292.218
292.284
292.378
292.49
292.628
292.842
293.171
293.598
294.108
294.702
295.393
296.192
297.068
298.139
299.139
300.147
300.642
0.050568
0.207685
0.618278
1.64989
3.89747
8.18962
15.2721
25.3556
37.9293
51.9905
66.6411
81.2983
95.7275
109.835
123.589
136.944
149.87
162.408
174.424
186.034
197.142
207.673
217.715
227.239
236.133
244.367
251.973
258.945
265.22
270.752
275.543
279.627
283.053
285.876
288.092
289.745
290.94
291.863
292.591
293.082
293.418
293.672
293.875
293.986
294.055
294.141
294.229
294.314
294.402
294.533
294.716
294.949
295.235
295.572
295.972
296.417
297.095
297.75
298.405
298.554
0.0505199
0.207439
0.617539
1.64816
3.89433
8.18506
15.2676
25.3536
37.9314
51.9951
66.6446
81.295
95.7109
109.8
123.522
136.847
149.738
162.228
174.189
185.743
196.806
207.283
217.254
226.705
235.539
243.719
251.258
258.149
264.346
269.816
274.556
278.587
281.973
284.764
286.915
288.49
289.633
290.492
291.153
291.612
291.907
292.101
292.232
292.278
292.3
292.351
292.407
292.461
292.547
292.705
292.927
293.21
293.551
293.945
294.41
294.892
295.563
296.231
296.927
297.071
0.0503084
0.206237
0.61302
1.63441
3.85916
8.10961
15.1303
25.1389
37.6379
51.6348
66.2334
80.8477
95.2385
109.31
123.032
136.356
149.253
161.764
173.763
185.349
196.434
206.961
217.006
226.521
235.404
243.652
251.297
258.312
264.62
270.172
274.991
279.126
282.614
285.515
287.817
289.541
290.753
291.688
292.433
292.932
293.279
293.549
293.77
293.882
293.942
294.017
294.095
294.147
294.187
294.284
294.433
294.626
294.879
295.173
295.535
295.926
296.496
297.08
297.732
297.842
0.0502302
0.205848
0.611821
1.63145
3.85325
8.09977
15.1173
25.1254
37.6266
51.6248
66.2225
80.8306
95.2101
109.266
122.956
136.255
149.122
161.587
173.533
185.071
196.121
206.598
216.572
226.021
234.859
243.059
250.638
257.572
263.805
269.309
274.092
278.185
281.647
284.519
286.746
288.39
289.559
290.436
291.136
291.619
291.927
292.132
292.281
292.336
292.354
292.407
292.475
292.544
292.636
292.812
293.075
293.412
293.829
294.311
294.877
295.464
296.194
296.941
297.804
298.112
0.0500518
0.204837
0.60802
1.61981
3.8232
8.03464
14.9975
24.9361
37.3649
51.3011
65.8509
80.4247
94.7796
108.817
122.509
135.804
148.673
161.161
173.141
184.706
195.771
206.292
216.336
225.846
234.728
242.986
250.655
257.703
264.043
269.626
274.482
278.662
282.2
285.161
287.538
289.328
290.567
291.517
292.28
292.788
293.147
293.426
293.66
293.782
293.844
293.931
294.03
294.101
294.169
294.311
294.524
294.796
295.139
295.551
296.05
296.583
297.24
297.916
298.743
299.058
0.0499563
0.204363
0.606528
1.61601
3.81532
8.02088
14.978
24.9135
37.343
51.2798
65.8288
80.3972
94.7424
108.767
122.428
135.701
148.545
160.988
172.918
184.443
195.481
205.955
215.931
225.38
234.223
242.442
250.052
257.022
263.291
268.83
273.657
277.809
281.336
284.277
286.572
288.28
289.48
290.381
291.117
291.621
291.945
292.162
292.318
292.378
292.398
292.452
292.526
292.596
292.687
292.865
293.147
293.505
293.955
294.49
295.107
295.768
296.541
297.329
298.302
298.766
0.0498013
0.203493
0.60328
1.60605
3.78946
7.96441
14.8732
24.7462
37.1092
50.9883
65.492
80.0278
94.349
108.355
122.018
135.286
148.13
160.596
172.558
184.104
195.15
205.664
215.704
225.213
234.095
242.36
250.047
257.123
263.497
269.113
274.004
278.224
281.806
284.818
287.26
289.115
290.391
291.357
292.131
292.648
293.018
293.305
293.546
293.669
293.724
293.801
293.892
293.949
294
294.129
294.339
294.602
294.944
295.381
295.901
296.472
297.146
297.823
298.698
299.122
0.0496973
0.202974
0.601621
1.60174
3.78025
7.94788
14.8488
24.7166
37.0789
50.9581
65.4614
79.9925
94.3055
108.3
121.934
135.184
148.005
160.428
172.341
183.856
194.884
205.352
215.326
224.779
233.631
241.864
249.495
256.495
262.802
268.383
273.255
277.456
281.036
284.034
286.39
288.161
289.4
290.331
291.104
291.633
291.975
292.203
292.371
292.437
292.458
292.513
292.59
292.655
292.729
292.891
293.162
293.506
293.942
294.477
295.09
295.757
296.524
297.28
298.245
298.769
0.0495591
0.202211
0.598799
1.59311
3.75781
7.89862
14.7568
24.5684
36.8696
50.695
65.1553
79.6554
93.9451
107.922
121.558
134.8
147.622
160.066
172.009
183.538
194.568
205.074
215.11
224.618
233.502
241.772
249.472
256.573
262.979
268.631
273.556
277.811
281.431
284.487
286.986
288.902
290.222
291.207
291.991
292.522
292.907
293.203
293.454
293.587
293.642
293.721
293.814
293.878
293.929
294.051
294.265
294.535
294.883
295.34
295.891
296.498
297.193
297.856
298.724
299.207
0.0494523
0.201674
0.597063
1.58852
3.7478
7.88025
14.729
24.5336
36.833
50.658
65.1185
79.6146
93.8975
107.864
121.473
134.7
147.5
159.904
171.801
183.307
194.325
204.786
214.758
224.216
233.078
241.323
248.97
255.996
262.34
267.962
272.877
277.123
280.749
283.795
286.208
288.04
289.321
290.283
291.089
291.644
292.004
292.245
292.432
292.512
292.537
292.604
292.698
292.787
292.877
293.049
293.341
293.714
294.178
294.759
295.434
296.164
296.976
297.74
298.706
299.295
0.0493268
0.200992
0.594573
1.58095
3.72815
7.837
14.6478
24.4019
36.6453
50.4201
64.8396
79.3061
93.5661
107.515
121.127
134.344
147.146
159.57
171.495
183.008
194.022
204.521
214.553
224.06
232.946
241.22
248.93
256.052
262.49
268.176
273.133
277.42
281.077
284.172
286.721
288.693
290.06
291.067
291.861
292.408
292.809
293.115
293.375
293.524
293.594
293.689
293.803
293.898
293.981
294.132
294.392
294.719
295.129
295.665
296.325
297.049
297.838
298.56
299.472
300.056
0.0492207
0.200457
0.592823
1.57626
3.71772
7.81755
14.6178
24.3635
36.6039
50.3781
64.7982
79.2615
93.5164
107.457
121.042
134.247
147.028
159.413
171.297
182.793
193.801
204.257
214.228
223.689
232.558
240.814
248.477
255.528
261.906
267.565
272.518
276.805
280.474
283.564
286.033
287.924
289.246
290.237
291.072
291.65
292.029
292.288
292.496
292.597
292.642
292.733
292.858
292.99
293.124
293.338
293.684
294.125
294.664
295.338
296.129
296.986
297.909
298.756
299.79
300.494
0.0491051
0.199838
0.590596
1.56954
3.70036
7.77931
14.5458
24.246
36.4351
50.1625
64.5436
78.9785
93.2106
107.134
120.722
133.916
146.7
159.103
171.012
182.51
193.508
204.001
214.031
223.536
232.421
240.699
248.422
255.564
262.029
267.745
272.73
277.048
280.742
283.876
286.471
288.494
289.907
290.936
291.737
292.299
292.716
293.037
293.31
293.478
293.571
293.689
293.831
293.969
294.098
294.298
294.618
295.024
295.526
296.164
296.949
297.82
298.75
299.591
300.605
301.325
0.0490019
0.199316
0.588875
1.56487
3.68982
7.75936
14.5145
24.2052
36.3905
50.117
64.4992
78.9316
93.1602
107.076
120.639
133.823
146.586
158.953
170.825
182.314
193.309
203.76
213.732
223.196
232.069
240.334
248.014
255.091
261.5
267.19
272.175
276.499
280.211
283.345
285.866
287.812
289.176
290.195
291.051
291.648
292.046
292.325
292.553
292.674
292.742
292.862
293.018
293.189
293.37
293.633
294.034
294.544
295.165
295.923
296.82
297.8
298.849
299.81
300.941
301.772
0.0488945
0.198749
0.58686
1.55885
3.67434
7.72531
14.4503
24.1
36.2383
49.9211
64.2662
78.6714
92.8772
106.776
120.342
133.515
146.283
158.666
170.559
182.045
193.026
203.513
213.542
223.044
231.928
240.209
247.943
255.106
261.596
267.338
272.348
276.694
280.424
283.597
286.235
288.305
289.762
290.812
291.62
292.194
292.628
292.962
293.247
293.431
293.542
293.681
293.846
294.014
294.183
294.422
294.784
295.247
295.815
296.523
297.388
298.364
299.416
300.374
301.501
302.346
0.0487953
0.198246
0.585193
1.55428
3.66391
7.70532
14.4185
24.0579
36.1916
49.8734
64.2198
78.6232
92.8272
106.721
120.263
133.426
146.174
158.522
170.384
181.866
192.847
203.295
213.268
222.733
231.61
239.883
247.579
254.68
261.118
266.838
271.85
276.209
279.959
283.134
285.705
287.702
289.109
290.158
291.029
291.638
292.055
292.354
292.595
292.732
292.821
292.96
293.131
293.321
293.529
293.815
294.235
294.769
295.415
296.199
297.134
298.169
299.287
300.323
301.538
302.468
0.0486951
0.197723
0.583355
1.54883
3.64999
7.67476
14.3608
23.9633
36.0539
49.6949
64.0061
78.3835
92.5647
106.441
119.987
133.139
145.892
158.255
170.134
181.609
192.573
203.055
213.083
222.582
231.463
239.748
247.494
254.676
261.188
266.953
271.986
276.359
280.125
283.335
286.012
288.127
289.623
290.693
291.509
292.094
292.544
292.888
293.178
293.372
293.493
293.642
293.809
293.979
294.154
294.392
294.744
295.197
295.752
296.446
297.301
298.284
299.368
300.377
301.571
302.501
0.0486006
0.197244
0.581759
1.54443
3.63983
7.65509
14.3292
23.9208
36.0062
49.646
63.9589
78.335
92.5159
106.388
119.91
133.055
145.788
158.12
169.971
181.447
192.413
202.859
212.835
222.301
231.179
239.459
247.171
254.295
260.759
266.505
271.544
275.933
279.72
282.933
285.551
287.596
289.046
290.125
291.005
291.623
292.056
292.373
292.622
292.764
292.862
293.001
293.161
293.333
293.521
293.778
294.15
294.625
295.203
295.915
296.781
297.763
298.842
299.862
301.087
302.056
0.0485067
0.196758
0.580069
1.53945
3.6272
7.62747
14.2771
23.8353
35.8812
49.483
63.7624
78.1136
92.2717
106.127
119.653
132.787
145.525
157.869
169.736
181.2
192.147
202.626
212.654
222.149
231.027
239.315
247.072
254.272
260.805
266.591
271.644
276.043
279.843
283.088
285.804
287.96
289.494
290.586
291.409
292.002
292.467
292.819
293.109
293.303
293.422
293.561
293.703
293.839
293.975
294.158
294.432
294.795
295.254
295.842
296.587
297.466
298.468
299.422
300.577
301.496
0.0484172
0.196305
0.578554
1.53525
3.61742
7.60836
14.2461
23.7931
35.8333
49.4337
63.715
78.0655
92.2248
106.076
119.581
132.707
145.429
157.742
169.587
181.055
192.005
202.452
212.433
221.896
230.772
239.06
246.793
253.941
260.427
266.192
271.253
275.671
279.495
282.749
285.413
287.505
288.999
290.106
290.99
291.615
292.064
292.398
292.652
292.798
292.898
293.024
293.153
293.283
293.424
293.613
293.889
294.257
294.723
295.306
296.034
296.884
297.837
298.753
299.873
300.762
0.0483291
0.195852
0.576991
1.53068
3.60589
7.58323
14.1988
23.7154
35.7194
49.2843
63.534
77.8606
91.9972
105.832
119.341
132.456
145.185
157.499
169.377
180.804
191.746
202.247
212.251
221.721
230.618
238.94
246.703
253.89
260.426
266.242
271.339
275.777
279.611
282.882
285.623
287.809
289.381
290.503
291.341
291.951
292.437
292.803
293.095
293.292
293.413
293.546
293.668
293.773
293.875
294.005
294.198
294.473
294.835
295.31
295.924
296.668
297.538
298.381
299.416
300.221
0.0482446
0.195425
0.57556
1.52669
3.59656
7.56487
14.1687
23.6742
35.6721
49.2355
63.4872
77.8136
91.9525
105.785
119.274
132.381
145.098
157.373
169.259
180.657
191.615
202.121
212.05
221.455
230.385
238.756
246.49
253.574
260.026
265.844
271.008
275.512
279.368
282.606
285.252
287.35
288.889
290.055
290.982
291.647
292.13
292.485
292.738
292.877
292.972
293.084
293.19
293.296
293.417
293.571
293.786
294.084
294.469
294.957
295.57
296.3
297.127
297.922
298.918
299.678
0.0481619
0.195003
0.57411
1.52247
3.58597
7.54185
14.1255
23.6032
35.5678
49.0982
63.3199
77.6235
91.7399
105.556
119.049
132.145
144.866
157.148
169.046
180.427
191.359
201.901
211.874
221.289
230.213
238.602
246.375
253.509
260.005
265.853
271.039
275.561
279.43
282.684
285.393
287.571
289.179
290.356
291.242
291.895
292.414
292.797
293.08
293.264
293.376
293.495
293.598
293.685
293.777
293.887
294.043
294.267
294.568
294.968
295.487
296.115
296.865
297.598
298.525
299.215
0.0480824
0.194601
0.572764
1.51872
3.57713
7.52437
14.0966
23.5633
35.5218
49.0505
63.2743
77.5781
91.6978
105.512
118.986
132.076
144.784
157.042
168.923
180.313
191.252
201.766
211.7
221.09
230.015
238.41
246.167
253.254
259.703
265.536
270.739
275.29
279.184
282.442
285.103
287.218
288.788
289.985
290.931
291.616
292.125
292.503
292.761
292.9
292.996
293.108
293.207
293.301
293.413
293.545
293.721
293.96
294.27
294.671
295.177
295.785
296.486
297.157
298.04
298.681
0.0480048
0.194206
0.571414
1.5148
3.56734
7.50315
14.0569
23.4981
35.4259
48.9239
63.1194
77.4014
91.4989
105.298
118.774
131.854
144.564
156.829
168.717
180.092
191.008
201.547
211.522
220.929
229.848
238.246
246.034
253.176
259.677
265.537
270.747
275.301
279.204
282.485
285.21
287.407
289.047
290.249
291.148
291.815
292.352
292.752
293.041
293.229
293.352
293.476
293.575
293.656
293.741
293.832
293.953
294.124
294.357
294.678
295.098
295.612
296.234
296.841
297.658
298.227
0.0479301
0.193829
0.570153
1.51128
3.55902
7.48662
14.0294
23.4599
35.3814
48.8777
63.0753
77.3578
91.4596
105.257
118.716
131.792
144.49
156.734
168.607
179.991
190.918
201.43
211.366
220.756
229.68
238.082
245.852
252.953
259.418
265.269
270.494
275.071
278.994
282.279
284.969
287.113
288.716
289.938
290.892
291.585
292.111
292.509
292.777
292.921
293.024
293.142
293.24
293.328
293.431
293.544
293.685
293.87
294.112
294.436
294.85
295.353
295.94
296.495
297.273
297.791
0.0478572
0.19346
0.568891
1.50763
3.54992
7.46696
13.9927
23.3997
35.2929
48.7605
62.9314
77.1932
91.2731
105.055
118.517
131.582
144.281
156.531
168.408
179.777
190.682
201.216
211.187
220.593
229.512
237.913
245.706
252.858
259.373
265.252
270.481
275.056
278.984
282.29
285.036
287.257
288.931
290.161
291.071
291.748
292.297
292.71
293.003
293.195
293.327
293.457
293.556
293.635
293.717
293.798
293.897
294.031
294.217
294.485
294.841
295.28
295.812
296.325
297.061
297.519
0.0477871
0.193107
0.567713
1.50433
3.54214
7.45144
13.9668
23.3635
35.2505
48.7162
62.8893
77.1519
91.2366
105.018
118.464
131.526
144.214
156.446
168.31
179.689
190.607
201.115
211.051
220.444
229.371
237.775
245.55
252.666
259.153
265.027
270.271
274.866
278.809
282.118
284.839
287.018
288.655
289.903
290.866
291.564
292.104
292.517
292.794
292.944
293.057
293.182
293.284
293.374
293.477
293.584
293.707
293.864
294.072
294.357
294.726
295.177
295.705
296.199
296.919
297.346
0.0477187
0.192761
0.566532
1.50092
3.53364
7.43311
13.9326
23.3076
35.1684
48.6075
62.7554
76.9981
91.0615
104.828
118.277
131.327
144.015
156.252
168.119
179.482
190.377
200.904
210.873
220.278
229.199
237.601
245.397
252.559
259.089
264.986
270.234
274.826
278.775
282.102
284.87
287.118
288.824
290.084
291.006
291.69
292.249
292.672
292.97
293.166
293.31
293.448
293.554
293.639
293.728
293.816
293.914
294.041
294.221
294.48
294.824
295.248
295.761
296.252
296.965
297.362
0.0476531
0.192431
0.565434
1.49785
3.52639
7.41863
13.9084
23.2735
35.1282
48.5654
62.7154
76.9592
91.028
104.795
118.228
131.277
143.957
156.177
168.033
179.406
190.316
200.82
210.755
220.151
229.083
237.487
245.266
252.396
258.904
264.8
270.062
274.672
278.632
281.962
284.713
286.926
288.597
289.871
290.842
291.543
292.095
292.521
292.805
292.963
293.086
293.22
293.331
293.431
293.545
293.664
293.794
293.956
294.171
294.465
294.844
295.306
295.847
296.357
297.087
297.484
0.0475889
0.192106
0.564325
1.49465
3.51841
7.40146
13.8764
23.2213
35.0518
48.4641
62.5904
76.8153
90.8633
104.616
118.051
131.088
143.766
155.99
167.847
179.205
190.092
200.612
210.577
219.984
228.907
237.308
245.105
252.275
258.823
264.741
270.005
274.61
278.575
281.923
284.713
286.987
288.727
290.015
290.949
291.638
292.205
292.635
292.937
293.141
293.296
293.444
293.562
293.662
293.771
293.881
294
294.15
294.357
294.648
295.028
295.491
296.047
296.59
297.344
297.745
0.0475274
0.1918
0.563305
1.4918
3.51169
7.38802
13.8539
23.1895
35.014
48.4245
62.5527
76.779
90.8328
104.586
118.007
131.044
143.715
155.926
167.773
179.141
190.044
200.543
210.478
219.878
228.813
237.217
244.998
252.141
258.67
264.589
269.867
274.488
278.462
281.813
284.593
286.841
288.544
289.843
290.822
291.524
292.087
292.522
292.812
292.981
293.116
293.261
293.385
293.502
293.635
293.777
293.929
294.114
294.36
294.691
295.111
295.621
296.221
296.804
297.599
298.029
0.0474671
0.191494
0.56226
1.48878
3.50418
7.37186
13.8238
23.1406
34.9426
48.3299
62.4359
76.644
90.6777
104.417
117.839
130.864
143.532
155.745
167.593
178.946
189.825
200.338
210.3
219.708
228.634
237.034
244.831
252.009
258.575
264.511
269.79
274.406
278.385
281.754
284.565
286.867
288.637
289.95
290.896
291.588
292.161
292.598
292.905
293.115
293.282
293.44
293.57
293.688
293.817
293.953
294.097
294.274
294.517
294.847
295.272
295.787
296.41
297.036
297.87
298.329
0.0474098
0.191209
0.561316
1.48616
3.49798
7.35947
13.803
23.1111
34.9074
48.2928
62.4007
76.6105
90.6501
104.39
117.801
130.826
143.49
155.69
167.53
178.893
189.789
200.283
210.218
219.622
228.559
236.963
244.747
251.902
258.451
264.39
269.683
274.314
278.301
281.672
284.479
286.759
288.493
289.816
290.8
291.503
292.074
292.517
292.814
292.99
293.136
293.289
293.422
293.552
293.699
293.858
294.024
294.226
294.496
294.854
295.306
295.855
296.511
297.174
298.049
298.546
0.047353
0.19092
0.560328
1.4833
3.49086
7.34417
13.7747
23.0651
34.8403
48.2041
62.2911
76.4836
90.5038
104.23
117.641
130.654
143.314
155.515
167.354
178.703
189.576
200.082
210.04
219.45
228.378
236.777
244.574
251.76
258.341
264.295
269.587
274.215
278.207
281.595
284.427
286.755
288.551
289.887
290.845
291.538
292.117
292.559
292.869
293.082
293.256
293.419
293.554
293.682
293.822
293.971
294.125
294.313
294.573
294.924
295.371
295.915
296.582
297.276
298.182
298.707
0.0472997
0.190657
0.559459
1.48089
3.48519
7.33281
13.7555
23.0379
34.8077
48.1697
62.2585
76.4528
90.4791
104.207
117.607
130.622
143.278
155.47
167.302
178.661
189.55
200.04
209.974
219.382
228.321
236.725
244.511
251.678
258.245
264.201
269.508
274.149
278.15
281.54
284.372
286.679
288.442
289.788
290.778
291.481
292.06
292.508
292.809
292.989
293.14
293.296
293.431
293.564
293.715
293.877
294.043
294.242
294.516
294.88
295.338
295.898
296.581
297.294
298.225
298.776
0.047246
0.190383
0.55852
1.47817
3.47841
7.31827
13.7286
22.9944
34.7446
48.0863
62.1556
76.3333
90.341
104.055
117.456
130.457
143.108
155.3
167.131
178.476
189.341
199.842
209.797
219.207
228.136
236.536
244.335
251.528
258.121
264.09
269.396
274.036
278.043
281.448
284.298
286.648
288.466
289.824
290.795
291.492
292.076
292.521
292.834
293.047
293.224
293.388
293.523
293.652
293.795
293.946
294.098
294.279
294.536
294.888
295.333
295.876
296.555
297.284
298.231
298.796
0.0471968
0.190141
0.557725
1.47597
3.47325
7.30794
13.7112
22.9695
34.7146
48.0546
62.1255
76.3053
90.3191
104.035
117.426
130.431
143.08
155.263
167.088
178.444
189.326
199.813
209.747
219.156
228.097
236.502
244.292
251.468
258.05
264.021
269.341
273.995
278.01
281.418
284.27
286.601
288.389
289.757
290.754
291.46
292.046
292.499
292.803
292.986
293.139
293.296
293.43
293.562
293.709
293.866
294.022
294.206
294.463
294.816
295.261
295.805
296.484
297.216
298.17
298.745
0.0471457
0.18988
0.556826
1.47336
3.46676
7.29404
13.6856
22.9282
34.655
47.976
62.0285
76.1925
90.1884
103.892
117.282
130.273
142.916
155.099
166.921
178.262
189.122
199.617
209.569
218.98
227.91
236.31
244.111
251.31
257.914
263.897
269.216
273.868
277.888
281.31
284.177
286.548
288.386
289.765
290.748
291.448
292.038
292.488
292.803
293.016
293.194
293.358
293.491
293.619
293.758
293.903
294.043
294.208
294.443
294.777
295.204
295.725
296.387
297.12
298.08
298.658
0.0471007
0.18966
0.556107
1.47138
3.46211
7.28471
13.6698
22.9056
34.6276
47.9469
62.0011
76.1673
90.1693
103.875
117.257
130.252
142.895
155.07
166.889
178.24
189.117
199.599
209.534
218.946
227.888
236.292
244.085
251.271
257.868
263.854
269.185
273.849
277.876
281.301
284.172
286.527
288.339
289.727
290.731
291.44
292.033
292.49
292.798
292.983
293.139
293.295
293.426
293.551
293.69
293.835
293.972
294.129
294.356
294.679
295.097
295.609
296.259
296.982
297.938
298.515
0.0470517
0.189409
0.55524
1.46886
3.45585
7.27136
13.6453
22.8663
34.5711
47.8727
61.9096
76.0605
90.0456
103.738
117.119
130.1
142.736
154.91
166.725
178.063
188.917
199.405
209.355
218.768
227.7
236.098
243.898
251.105
257.722
263.718
269.049
273.709
277.74
281.178
284.063
286.455
288.314
289.713
290.707
291.409
292.003
292.457
292.773
292.986
293.165
293.327
293.457
293.577
293.707
293.839
293.958
294.094
294.297
294.596
294.991
295.475
296.1
296.815
297.769
298.341
0.047011
0.189211
0.554599
1.4671
3.45171
7.26303
13.6311
22.8459
34.5463
47.8463
61.8847
76.0382
90.0291
103.724
117.098
130.085
142.722
154.89
166.701
178.049
188.921
199.399
209.333
218.749
227.693
236.095
243.89
251.086
257.698
263.699
269.04
273.711
277.747
281.189
284.08
286.459
288.295
289.702
290.712
291.421
292.019
292.479
292.79
292.976
293.132
293.286
293.409
293.523
293.647
293.773
293.882
294.004
294.192
294.474
294.854
295.324
295.929
296.626
297.567
298.131
0.0469633
0.188966
0.553752
1.46465
3.44564
7.25015
13.6076
22.8083
34.4925
47.776
61.7982
75.937
89.9117
103.594
116.967
129.938
142.568
154.734
166.541
177.876
188.725
199.207
209.155
218.569
227.502
235.899
243.7
250.913
257.543
263.551
268.892
273.56
277.6
281.055
283.957
286.37
288.247
289.665
290.668
291.371
291.968
292.425
292.742
292.953
293.13
293.288
293.409
293.517
293.631
293.744
293.838
293.941
294.106
294.366
294.724
295.168
295.745
296.428
297.362
297.914
0.0469276
0.188794
0.553194
1.46311
3.44201
7.24279
13.595
22.7901
34.4702
47.7521
61.7759
75.9173
89.898
103.584
116.95
129.928
142.56
154.72
166.526
177.871
188.737
199.212
209.146
218.564
227.509
235.911
243.708
250.912
257.537
263.55
268.901
273.58
277.627
281.085
283.993
286.393
288.25
289.674
290.69
291.4
292.002
292.465
292.778
292.964
293.118
293.266
293.38
293.48
293.586
293.691
293.774
293.864
294.014
294.259
294.604
295.034
295.591
296.255
297.17
297.704
0.0468801
0.18855
0.552355
1.4607
3.43608
7.23029
13.5723
22.7541
34.419
47.6855
61.6938
75.8212
89.7864
103.46
116.824
129.787
142.409
154.568
166.369
177.7
188.544
199.022
208.967
218.381
227.315
235.713
243.515
250.734
257.372
263.391
268.742
273.421
277.472
280.941
283.859
286.288
288.182
289.618
290.632
291.338
291.94
292.401
292.72
292.93
293.104
293.257
293.37
293.467
293.568
293.666
293.74
293.816
293.952
294.18
294.509
294.92
295.453
296.103
297.01
297.525
0.0468501
0.188406
0.551886
1.45939
3.43296
7.2239
13.5612
22.7379
34.399
47.664
61.6738
75.804
89.7748
103.452
116.811
129.78
142.407
154.56
166.361
177.703
188.563
199.035
208.97
218.389
227.334
235.737
243.538
250.75
257.385
263.409
268.771
273.462
277.521
280.995
283.918
286.337
288.216
289.658
290.685
291.401
292.01
292.478
292.794
292.981
293.134
293.279
293.385
293.474
293.568
293.66
293.725
293.792
293.916
294.133
294.45
294.851
295.368
296.003
296.893
297.384
0.0468015
0.188159
0.551041
1.45698
3.42708
7.21153
13.5388
22.7022
34.3481
47.5975
61.5917
75.7074
89.6624
103.326
116.681
129.636
142.251
154.403
166.196
177.525
188.365
198.837
208.78
218.195
227.131
235.529
243.334
250.558
257.205
263.235
268.6
273.292
277.356
280.839
283.771
286.216
288.128
289.585
290.614
291.327
291.936
292.404
292.725
292.934
293.107
293.26
293.371
293.464
293.561
293.654
293.717
293.777
293.891
294.096
294.402
294.789
295.289
295.913
296.799
297.277
0.0467105
0.187741
0.549715
1.45328
3.41819
7.19311
13.5064
22.6534
34.2847
47.5243
61.5158
75.6316
89.5947
103.261
116.599
129.564
142.19
154.325
166.117
177.472
188.346
198.803
208.723
218.15
227.113
235.529
243.328
250.532
257.17
263.213
268.609
273.332
277.415
280.904
283.844
286.263
288.141
289.615
290.681
291.42
292.051
292.542
292.865
293.029
293.161
293.31
293.42
293.507
293.599
293.688
293.743
293.789
293.886
294.075
294.369
294.748
295.231
295.859
296.749
298.511
0.0467297
0.187991
0.550996
1.45773
3.43046
7.22075
13.5583
22.7364
34.3989
47.6625
61.6673
75.7906
89.7516
103.42
116.797
129.748
142.361
154.53
166.337
177.654
188.48
198.97
208.93
218.34
227.267
235.668
243.486
250.722
257.371
263.395
268.751
273.436
277.495
280.976
283.902
286.352
288.273
289.723
290.731
291.419
292.015
292.464
292.763
292.964
293.131
293.262
293.336
293.387
293.445
293.501
293.526
293.541
293.616
293.8
294.103
294.501
295.009
295.683
296.581
298.278
0.0466252
0.187519
0.549454
1.45318
3.41873
7.19471
13.5092
22.6568
34.287
47.5241
61.5126
75.6266
89.5869
103.253
116.59
129.554
142.192
154.317
166.11
177.474
188.336
198.8
208.73
218.153
227.111
235.526
243.329
250.536
257.175
263.217
268.611
273.334
277.414
280.906
283.838
286.261
288.159
289.642
290.698
291.421
292.052
292.541
292.852
293.012
293.145
293.287
293.382
293.449
293.524
293.596
293.63
293.645
293.715
293.892
294.186
294.571
295.069
295.77
296.668
298.283
0.046596
0.187543
0.550039
1.45588
3.42738
7.21626
13.553
22.7318
34.397
47.6636
61.6716
75.7963
89.7612
103.429
116.81
129.758
142.365
154.538
166.344
177.661
188.486
198.975
208.931
218.341
227.269
235.673
243.491
250.724
257.37
263.394
268.752
273.44
277.5
280.981
283.906
286.349
288.262
289.715
290.723
291.401
291.994
292.441
292.723
292.895
293.043
293.165
293.224
293.258
293.303
293.351
293.364
293.359
293.421
293.606
293.922
294.357
294.912
295.67
296.609
298.218
0.0465183
0.187224
0.549034
1.45281
3.41893
7.19605
13.512
22.6609
34.2906
47.5254
61.5104
75.6222
89.5792
103.245
116.58
129.542
142.193
154.309
166.103
177.476
188.327
198.795
208.734
218.156
227.108
235.521
243.324
250.535
257.175
263.218
268.608
273.325
277.402
280.894
283.823
286.25
288.165
289.657
290.706
291.413
292.037
292.527
292.831
292.988
293.125
293.267
293.355
293.415
293.485
293.555
293.585
293.59
293.653
293.838
294.157
294.589
295.155
295.951
296.897
298.458
0.0464619
0.187105
0.549113
1.45409
3.42437
7.21174
13.5474
22.7264
34.3939
47.6635
61.675
75.8017
89.7708
103.439
116.824
129.77
142.372
154.546
166.351
177.667
188.491
198.978
208.933
218.342
227.271
235.677
243.495
250.725
257.37
263.394
268.754
273.444
277.504
280.986
283.911
286.347
288.255
289.708
290.72
291.388
291.973
292.42
292.689
292.839
292.969
293.082
293.133
293.158
293.197
293.241
293.251
293.241
293.296
293.488
293.825
294.291
294.899
295.733
296.706
298.272
0.046392
0.186859
0.548445
1.45211
3.41867
7.19696
13.5148
22.6656
34.2956
47.5283
61.5096
75.6185
89.572
103.236
116.569
129.53
142.192
154.3
166.096
177.479
188.32
198.791
208.737
218.158
227.106
235.516
243.321
250.534
257.176
263.218
268.604
273.315
277.389
280.882
283.807
286.235
288.165
289.666
290.712
291.405
292.02
292.508
292.806
292.964
293.106
293.248
293.33
293.383
293.448
293.514
293.541
293.541
293.596
293.788
294.115
294.562
295.184
296.042
296.996
298.511
0.0463226
0.186663
0.548197
1.45235
3.42144
7.20727
13.5416
22.7203
34.3896
47.662
61.6774
75.8065
89.7803
103.449
116.84
129.783
142.38
154.555
166.358
177.673
188.495
198.981
208.936
218.343
227.272
235.68
243.499
250.727
257.369
263.393
268.755
273.449
277.511
280.994
283.918
286.344
288.25
289.705
290.72
291.382
291.958
292.405
292.661
292.788
292.901
293.008
293.051
293.065
293.097
293.135
293.141
293.128
293.182
293.384
293.731
294.231
294.898
295.784
296.777
298.328
0.0462495
0.186433
0.547687
1.45107
3.41784
7.19722
13.5172
22.6705
34.302
47.533
61.5105
75.616
89.5655
103.228
116.558
129.515
142.188
154.291
166.09
177.482
188.314
198.788
208.74
218.16
227.104
235.512
243.318
250.533
257.175
263.216
268.599
273.305
277.376
280.868
283.79
286.218
288.161
289.668
290.712
291.394
292.001
292.487
292.779
292.94
293.087
293.229
293.307
293.355
293.416
293.477
293.499
293.497
293.559
293.759
294.1
294.586
295.253
296.153
297.14
298.664
0.0461733
0.186199
0.547262
1.45063
3.4186
7.20291
13.5358
22.7138
34.3843
47.6591
61.6784
75.8104
89.7892
103.459
116.855
129.799
142.391
154.564
166.365
177.68
188.499
198.984
208.938
218.344
227.273
235.682
243.502
250.729
257.369
263.394
268.757
273.453
277.517
281.002
283.927
286.344
288.247
289.704
290.722
291.379
291.945
292.392
292.637
292.747
292.845
292.942
292.978
292.985
293.01
293.039
293.036
293.017
293.069
293.275
293.631
294.139
294.826
295.737
296.74
298.289
0.0460938
0.185954
0.546773
1.44968
3.41637
7.19664
13.5189
22.6755
34.3095
47.5398
61.5136
75.6151
89.5602
103.219
116.548
129.5
142.182
154.284
166.084
177.484
188.31
198.786
208.744
218.163
227.103
235.51
243.316
250.532
257.174
263.214
268.593
273.294
277.362