/*--------------------------------*- C++ -*----------------------------------*\
| =========                 |                                                 |
| \\      /  F ield         | OpenFOAM: The Open Source CFD Toolbox           |
|  \\    /   O peration     | Version:  5.x                                   |
|   \\  /    A nd           | Web:      www.OpenFOAM.org                      |
|    \\/     M anipulation  |                                                 |
\*---------------------------------------------------------------------------*/
/*   Windows 32 and 64 bit porting by blueCAPE: http://www.bluecape.com.pt   *\
|  Based on Windows porting (2.0.x v4) by Symscape: http://www.symscape.com   |
\*---------------------------------------------------------------------------*/
FoamFile
{
    version     2.0;
    format      ascii;
    class       volScalarField;
    location    "0.009";
    object      p;
}
// * * * * * * * * * * * * * * * * * * * * * * * * * * * * * * * * * * * * * //

dimensions      [1 -1 -2 0 0 0 0];

internalField   nonuniform List<scalar> 
10000
(
99981.4
99923.6
99765.8
99369.9
98507.8
96872.5
94222.6
90573
86231.5
81616.7
77074.1
72757.1
68722.8
64965.6
61483.4
58251
55266.4
52507.5
49962.2
47625.1
45473.4
43502.6
41704.1
40070.6
38594.2
37267
36082.1
35035.7
34124.8
33344.8
32686.1
32136.9
31691.4
31338.1
31053.8
30847.9
30699.7
30597.5
30524.3
30474.4
30446.2
30426
30418.7
30408.8
30401.4
30395.3
30383.4
30373.4
30353.2
30326.9
30291.3
30245.9
30193.1
30113.9
30004.4
29864.3
29737.4
29638.3
29573.4
29435.1
99981.4
99924.1
99767.7
99375.9
98523.4
96905.3
94280.2
90658.6
86341.9
81745
77213.6
72903.5
68873.7
65119.4
61639.1
58407.2
55423.1
52662.8
50115.5
47775.5
45621.7
43647.3
41844.5
40205.2
38722.5
37388.7
36196.1
35141.7
34221.2
33431.2
32762.2
32202.8
31746.5
31386.8
31089.9
30883.9
30717.5
30615.8
30538.2
30482.8
30453.7
30427.1
30421.4
30414.3
30406.6
30398.4
30389.8
30375.2
30359.1
30337.5
30305.9
30265.6
30205.9
30134.5
30036.6
29913.5
29797.1
29655.7
29587.9
29439.3
99981.5
99924.2
99767.9
99376.5
98524.7
96907.7
94283.6
90662.6
86346.2
81749.1
77217.3
72906.8
68876.5
65122
61641.2
58409.9
55424.2
52665.6
50117.5
47778.5
45622.7
43647.8
41844.4
40205.8
38723.3
37389.3
36196.9
35141.4
34221.1
33431.2
32762.6
32203.2
31746.4
31384.4
31089
30873.8
30717.7
30610
30532.9
30481.3
30448
30428.6
30418.7
30408.2
30402.7
30396.1
30385.6
30372.2
30360.5
30338.9
30305
30268.9
30207.8
30125.7
30032
29915.6
29784.4
29674.9
29600.5
29437.5
99981.5
99924.6
99769.5
99381.6
98537.9
96936.1
94334.2
90738.7
86445.3
81865.3
77344.5
73041
69015.4
65263.9
61785.6
58554.4
55569.8
52809.2
50259
47917.4
45761.3
43783.3
41976.3
40331.9
38843.4
37503.4
36304.3
35242.3
34313
33513.2
32834.8
32267.2
31799.4
31433.3
31127.3
30915.2
30735.2
30633.8
30552.6
30491.4
30457.3
30434.9
30426.8
30415.5
30408.1
30399.6
30391.6
30380.6
30363.2
30343.1
30313.3
30275.3
30228.1
30161
30064.7
29945.6
29818.8
29723.4
29640.6
29455
99981.5
99924.7
99770
99382.7
98540.2
96940.2
94340.3
90746
86453
81872.7
77351.3
73046.8
69020.5
65268.5
61789.2
58559
55572.4
52813.9
50263.4
47922.2
45763.3
43784.6
41976.8
40333.1
38845.1
37505
36305.5
35242.1
34313.1
33513.8
32835.4
32266.5
31799
31428.7
31123.1
30901.8
30737.5
30625.8
30545.5
30488.5
30451
30430.9
30421.2
30406.6
30403.7
30398.9
30389.4
30375.9
30362
30342.5
30312.9
30276.5
30228.2
30158.6
30068.3
29961.9
29828.5
29744.5
29647.8
29435.8
99981.6
99925
99771.3
99387.1
98551.5
96964.8
94384.6
90813.6
86542.3
81978.1
77467.3
73170
69148.5
65399.6
61922.9
58692.4
55707.6
52946.3
50394.2
48050.7
45892.5
43911.3
42100.4
40451.2
38957.3
37611.7
36406.7
35337.4
34400
33591.4
32904.2
32328.4
31850.4
31478.6
31165.6
30947.5
30754.2
30651.6
30562.3
30500.3
30458.7
30438.1
30428.8
30415.5
30408.7
30401.3
30392.9
30379.8
30364.7
30348.4
30320
30284.5
30245.6
30174
30092.2
29996.8
29871.7
29779.9
29683.9
29471.8
99981.6
99925.2
99771.8
99388.4
98554.5
96970.3
94392.8
90823.5
86552.6
81988.1
77476.6
73178
69155.4
65405.8
61928
58698.2
55711.3
52952.8
50400.7
48057
45895.2
43913.1
42101.3
40453.2
38960.1
37614.1
36407.9
35337.6
34400.2
33592.3
32905
32327.4
31851
31471
31156.7
30930.8
30754.2
30640.6
30557.4
30496.6
30455.1
30432.3
30423.4
30407.1
30403.6
30399.3
30391.8
30378
30362.1
30347.1
30320.7
30285.5
30245.9
30175.6
30099.1
30005.3
29882.3
29780.2
29690.6
29494
99981.7
99925.4
99773
99392.1
98564.3
96991.7
94431.7
90883.7
86633
82084
77582.6
73291.2
69273.4
65526.9
62051.9
58822.4
55837.3
53074.8
50521.5
48175.7
46016.2
44031.8
42217.2
40563.5
39064.5
37713.9
36503.3
35427.4
34482.5
33665.5
32970.1
32386.2
31899.9
31522
31199.4
30975.1
30771.9
30669.4
30572
30508.9
30464.6
30442.9
30433
30415.7
30409.3
30403.7
30396.1
30381.1
30365.2
30352.9
30330.9
30294.2
30255.3
30191.7
30119.6
30028.2
29904.2
29796.7
29715.5
29535.5
99981.7
99925.6
99773.6
99393.7
98567.8
96998.2
94441.5
90895.6
86645.5
82095.9
77593.7
73300.7
69281.7
65534.5
62058
58828.4
55841.8
53083.1
50529.6
48183.5
46019.2
44034.2
42218.4
40566.1
39068.4
37717.3
36504.9
35427.7
34482.6
33666.6
32971.1
32385.2
31900.1
31511
31188.5
30958.6
30768.8
30656.3
30567
30505
30458.8
30433.9
30423.9
30412.9
30405.2
30400.2
30393.5
30379.8
30361.7
30351.7
30333.2
30297.2
30255.2
30191.6
30117.2
30022.9
29900.9
29798.3
29723.6
29558.4
99981.7
99925.9
99774.5
99396.9
98576.3
97016.9
94475.8
90949.3
86718
82183.2
77690.9
73404.9
69390.6
65646.5
62173.1
58944.1
55958.9
53195.5
50641.4
48293.1
46132.5
44145.1
42327.3
40669.3
39165.8
37810.1
36594.1
35512.4
34560.5
33735.7
33032.4
32441
31947.6
31561.1
31232.3
31002
30792.2
30685.3
30582.1
30517.1
30471.8
30448.6
30437.8
30421
30410.6
30405.6
30397.5
30382.9
30366.1
30357.3
30340.4
30305.5
30263.9
30209
30132
30039
29918.4
29818.7
29749.3
29593.8
99981.8
99926
99775.2
99398.7
98580.1
97024
94486.7
90962.7
86732.1
82196.5
77703.3
73415.6
69400.1
65655
62179.9
58951.5
55964.7
53205.2
50650.8
48302.1
46135.6
44147.8
42328.4
40672.3
39170.3
37814.2
36596
35512.5
34560.6
33736.9
33033.6
32440.4
31946.7
31551.5
31220.6
30987.5
30785.3
30671.9
30577
30512.8
30465.1
30438.8
30426.8
30410.8
30404
30400.8
30394.9
30383.5
30364.5
30356.1
30340.1
30308
30262.3
30205.2
30127.7
30037.7
29922.7
29827.9
29760.2
29609.2
99981.8
99926.3
99776
99401.5
98587.5
97040.5
94517.1
91010.6
86797.6
82276.3
77792.4
73511.7
69500.7
65758.7
62286.7
59058
56073.2
53308.2
50754.2
48403.5
46241.6
44251.5
42430.7
40768.7
39260.9
37900.7
36679.9
35592.3
34633.9
33802
33091.2
32492.8
31993.2
31597
31264.8
31027.6
30814.9
30699
30592.7
30524.2
30475.9
30448.4
30436.9
30420.3
30410.5
30405.2
30399.1
30387.1
30368.4
30360.2
30344.6
30315.4
30271.8
30217.2
30142.8
30054.4
29940.5
29844.3
29779.8
29634.6
99981.8
99926.4
99776.7
99403.2
98591.4
97048
94528.7
91025.1
86813
82290.6
77805.8
73523.1
69510.9
65767.9
62294.2
59065.9
56079.7
53319.5
50764.7
48413.2
46245.2
44254.7
42431.8
40772.2
39265.9
37905.2
36681.7
35592.4
34634
33803.3
33092.7
32492.6
31991.6
31590.7
31252.8
31014.2
30800.5
30683.9
30588.5
30519.8
30470.2
30440.9
30428.6
30410.4
30404
30400.6
30396.1
30386.9
30367.3
30358.4
30342.3
30315.2
30268.4
30213.9
30141.4
30055.5
29944
29846.6
29783.4
29643.9
99981.9
99926.6
99777.5
99405.7
98598
97062.6
94555.7
91068
86872.1
82363.5
77887.6
73611.8
69604
65864
62393.4
59165.7
56180.5
53414
50860.3
48507.3
46343.9
44351.5
42527.9
40862.2
39350.4
37985.8
36760.6
35667.7
34703.3
33864.6
33146.7
32541.9
32036.3
31631.5
31295
31051.1
30837.7
30710.9
30604.2
30530.6
30481.3
30450.9
30438.9
30421.1
30411.7
30405.8
30399.7
30390
30369.9
30361.9
30346.8
30320.7
30275.7
30224.6
30157.6
30069.3
29956.6
29855.1
29793.6
29660.2
99981.9
99926.8
99778.1
99407.5
98602
97070.2
94567.8
91083.3
86888.3
82378.6
77901.7
73623.8
69614.6
65873.7
62401.3
59173.2
56188.1
53426.5
50871.6
48517.4
46348.1
44355.1
42528.9
40866
39355.7
37990.7
36762.3
35667.8
34703.3
33866
33148.5
32542.1
32034.9
31627.5
31283.6
31038.2
30816.9
30697.7
30599.7
30526.8
30475.8
30444.3
30431.5
30412.6
30406.8
30402.4
30397.2
30387.5
30368.3
30359.9
30345.1
30319.9
30274.1
30224
30155.9
30069
29958.1
29854.6
29792.5
29662.5
99981.9
99927
99778.8
99409.7
98607.8
97083.2
94591.9
91121.8
86941.9
82445.2
77976.9
73705.8
69701
65962.8
62493.6
59266
56281.2
53513.5
50960.1
48604.7
46439.3
44445.5
42619.3
40950.3
39434.8
38066
36836.7
35738.8
34768.7
33923.7
33199.4
32588.2
32076.8
31664.7
31324
31074.3
30857
30721.2
30613.7
30536.3
30487.9
30456.7
30444.6
30423.7
30413.9
30406.5
30400.4
30390.8
30371.5
30364
30349.5
30325.7
30282.2
30235.9
30170.8
30081.5
29969.5
29861.8
29799.5
29671
99982
99927.2
99779.4
99411.4
98611.8
97090.9
94604.1
91137.4
86958.7
82460.8
77991.4
73718.2
69711.9
65972.7
62501.7
59274.2
56289.7
53526.8
50972
48615
46444.2
44449.3
42620.3
40954.3
39440.2
38071.1
36838.3
35738.9
34769
33925.3
33201.4
32588.9
32075.8
31661.5
31314
31060.9
30837.8
30711.8
30610.3
30533.5
30481.5
30447.7
30435.7
30413.9
30409.3
30403.5
30397.6
30388.3
30370
30362.8
30349.1
30326.1
30283.8
30236.1
30168.4
30080.2
29971.4
29864.7
29799.3
29667.4
99982
99927.4
99780
99413.4
98617
97102.5
94625.7
91172.1
87007.2
82521.7
78060.6
73793.9
69792
66055.6
62587.6
59360.3
56375.6
53606.4
51054
48696.1
46529.7
44533.8
42705.1
41032.9
39514.1
38141.6
36908.1
35805.8
34830.4
33979.7
33249.3
32632.2
32115.2
31695.9
31350.7
31096.9
30872.7
30731.7
30622.5
30543
30493
30457.5
30444.7
30422.4
30414.1
30407
30401.3
30392
30373.6
30367.2
30354.1
30332
30293.2
30246.9
30183.2
30095.2
29986.5
29877.3
29808.3
29670.9
99982
99927.5
99780.6
99415.1
98620.9
97110.1
94637.8
91187.9
87024.3
82537.6
78075.4
73806.4
69803
66065.5
62595.8
59368.9
56385
53620.4
51066.3
48706.5
46534.6
44538
42706.2
41037.3
39519.7
38146.7
36909.8
35806
34830.9
33981.5
33251.6
32633.3
32114.4
31694.1
31342.5
31083.1
30859.7
30725.7
30619.7
30540.3
30487.1
30449.6
30437.4
30416.6
30409.9
30404.3
30398.4
30389.6
30372.8
30366.8
30354.3
30333.1
30295.2
30247.1
30180.8
30095.1
29992
29883.1
29811.7
29671
99982.1
99927.7
99781.2
99416.9
98625.6
97120.6
94657.4
91219.2
87068.4
82593.4
78139.1
73876.5
69877.2
66142.6
62675.8
59448.7
56464.4
53693.6
51142.2
48782
46614.5
44617
42785.9
41110.6
39588.7
38212.6
36975.5
35869
34888.8
34032.7
33296.5
32673.9
32151.6
31726.3
31377.2
31119.3
30888.3
30743.4
30630.7
30549.1
30498.4
30457.8
30444
30423.3
30414.7
30407.7
30401.7
30393.1
30376.5
30370.7
30358.7
30338.7
30302.8
30257.3
30193.3
30108.8
30007.3
29896.1
29822.7
29680
99982.1
99927.8
99781.8
99418.5
98629.3
97127.9
94669.3
91234.9
87085.5
82609.4
78153.9
73889.1
69888.3
66152.4
62684
59457.3
56474.4
53708.1
51154.8
48792.4
46619.5
44621.2
42786.9
41115.2
39594.4
38217.9
36977.5
35869.3
34889.4
34034.6
33299.2
32675.2
32151.3
31724.4
31368.8
31102.9
30878.8
30738.7
30628
30546.9
30492.6
30451.7
30439.2
30419.4
30411.6
30405.3
30398.4
30391.1
30376
30369.8
30358.8
30339.5
30303.6
30257.8
30194
30107.8
30010
29900.3
29824.9
29685.8
99982.1
99928
99782.3
99420.2
98633.7
97137.5
94687
91263.3
87125.8
82660.6
78212.7
73954
69957.2
66224.2
62758.5
59531.6
56547.7
53775.7
51225.2
48862.6
46694.2
44695
42861.7
41183.7
39658.8
38279.4
37038.7
35928.6
34944
34082.7
33341.3
32713.3
32186.1
31755.4
31402.2
31139.7
30904.7
30755.2
30638.2
30555.1
30503.8
30461.7
30446.6
30425.6
30416
30409.2
30401.5
30394.2
30379.3
30372.9
30362.4
30343.4
30309.4
30266
30206.9
30123.7
30022.4
29910
29829.6
29695.4
99982.1
99928.1
99782.8
99421.7
98637.2
97144.6
94698.5
91278.7
87142.7
82676.5
78227.4
73966.5
69968.2
66233.8
62766.7
59540.1
56558.2
53790.2
51237.8
48873
46699.2
44699.3
42862.8
41188.5
39664.6
38284.8
37041.2
35929.1
34944.8
34084.9
33344.1
32715
32186.2
31754
31393.8
31120.8
30895.3
30751.5
30635.7
30553.3
30498.4
30456
30442.4
30420.9
30413.2
30407.1
30398.2
30392.2
30379.4
30370.3
30360.2
30344.8
30312.2
30266.7
30207.9
30123
30022.7
29911.4
29827.7
29697
99982.2
99928.3
99783.3
99423.2
98641.2
97153.3
94714.7
91304.6
87179.5
82723.6
78281.7
74026.7
70032.2
66300.8
62836.1
59609.4
56626.1
53852.6
51303.2
48938.2
46768.6
44768.3
42932.8
41252.3
39724.7
38342.3
37098.3
35985
34996.2
34130.1
33383.9
32750.6
32219
31783.4
31425.6
31158.4
30920.1
30766.4
30645.5
30560.8
30509.2
30465.7
30449
30428.2
30417.2
30411.4
30401.1
30395.2
30382.7
30372.6
30361.3
30347.2
30318.9
30273.9
30218.4
30137.1
30033.8
29919.4
29830.5
29699.4
99982.2
99928.4
99783.8
99424.6
98644.6
97160
94725.8
91319.5
87196.1
82739.3
78296.2
74039
70043.1
66310.1
62844.1
59617.8
56636.8
53866.8
51315.7
48948.4
46774.1
44772.5
42934
41257.2
39730.6
38347.7
37101
35985.5
34997.1
34132.5
33386.7
32752.6
32219.3
31782.1
31418.2
31139.1
30911
30763.3
30643.1
30559.6
30503.9
30459.9
30445.3
30423.2
30415.6
30409
30398.4
30393.4
30382.7
30371.6
30360.1
30346.7
30318.8
30273.8
30218
30134.4
30028.8
29919
29828.7
29699.7
99982.2
99928.5
99784.3
99426.1
98648.2
97168.1
94740.6
91343.3
87229.8
82782.6
78346.3
74094.8
70102.5
66372.6
62908.8
59682.2
56699.6
53924.6
51376.6
49009.1
46838.2
44837.3
42999.4
41316.6
39786.6
38401.4
37154.5
36037.9
35045.4
34174.9
33424
32786
32250.2
31809.8
31446.9
31176.1
30934.9
30777.1
30652.6
30566.6
30513.9
30468.7
30450
30429.8
30419.3
30413.1
30400.6
30395.8
30385.9
30374
30362.4
30349.6
30321.9
30278.8
30224.7
30143.6
30041
29926.4
29833.1
29703.1
99982.2
99928.7
99784.8
99427.4
98651.4
97174.5
94751.2
91357.6
87245.9
82797.9
78360.5
74106.9
70113.3
66381.5
62916.7
59690.7
56710.3
53938.6
51388.6
49019.1
46844.1
44841.1
43001
41321.7
39792.5
38406.7
37157.2
36038.6
35046.5
34177.4
33427.1
32787.8
32250.8
31808.7
31441
31158
30927
30774.1
30651.2
30565.6
30509
30463.6
30446.8
30424.5
30417.3
30411.1
30398.2
30394.2
30386.1
30374.1
30362.2
30349.1
30319.6
30277.5
30222
30138.9
30034.1
29926.4
29834.5
29706.3
99982.3
99928.8
99785.2
99428.7
98654.8
97181.9
94764.9
91379.5
87277
82837.9
78406.9
74158.6
70168.4
66439.9
62977.1
59750.5
56768.7
53992.2
51445.3
49075.6
46903.8
44901.9
43061.9
41377.1
39844.7
38457
37207.3
36087.8
35091.7
34217.1
33461.9
32819.4
32280.1
31834.4
31469.4
31192.5
30949.3
30787.2
30659.9
30572.5
30517.8
30471.6
30450.2
30431.3
30421
30414.3
30400.3
30396.2
30388.2
30376.2
30364.7
30351.9
30321.4
30280.5
30225.9
30144.3
30044.2
29934.9
29840.2
29711.6
99982.3
99928.9
99785.6
99430
98657.8
97187.9
94774.9
91393.1
87292.4
82852.7
78420.7
74170.4
70178.9
66448.4
62984.7
59758.8
56779.2
54005.9
51457
49085.5
46909.7
44905.4
43063.9
41382.4
39850.7
38462.3
37210.1
36088.7
35093.1
34219.8
33465
32821.3
32280.7
31833.8
31462.7
31176.8
30942.1
30784.5
30659.1
30571.3
30513.7
30467.4
30447.9
30426.5
30419.1
30412.4
30398.6
30394.8
30387.8
30375.7
30364.7
30351.6
30319.2
30278.6
30223.7
30141.3
30039
29935.5
29842.9
29715.9
99982.3
99929
99786
99431.2
98661
97194.8
94787.6
91413.4
87321.1
82889.7
78463.8
74218.4
70230.2
66502.9
63041
59814.6
56833.5
54055.7
51509.8
49138.1
46965.4
44962.4
43120.5
41434
39899.4
38509.2
37256.9
36134.5
35135.2
34257
33497.7
32851.1
32308.4
31858.1
31491.8
31208.1
30963.2
30796.8
30667.2
30577.9
30521.7
30474.6
30451.6
30433.4
30422.6
30415.2
30400.5
30396.2
30389
30376.8
30366.3
30354.3
30321.5
30280.4
30226.8
30146.3
30046.4
29943.4
29848.8
29721.6
99982.3
99929.1
99786.4
99432.4
98663.8
97200.4
94797
91426.3
87335.9
82904
78477
74229.9
70240.5
66511.1
63048.5
59822.6
56843.7
54069
51521
49147.8
46971.3
44965.8
43122.9
41439.2
39905.3
38514.4
37259.7
36135.6
35136.7
34259.7
33500.8
32853
32308.7
31857.6
31483.6
31194.5
30956
30794.6
30666.8
30576.8
30518.2
30471.1
30449.8
30429.2
30421.1
30413.8
30399.3
30395.1
30388
30375.6
30365.4
30354.3
30320.8
30278.7
30225.9
30146.3
30044.8
29944.6
29852.3
29726.3
99982.4
99929.2
99786.8
99433.6
98666.7
97206.8
94808.8
91445.1
87362.5
82938.3
78517
74274.5
70288.2
66562.1
63101
59874.7
56894.3
54115.4
51570.3
49196.7
47023
45019.2
43175.5
41487.3
39950.8
38558.3
37303.5
36178.5
35176.1
34294.5
33531.4
32881.3
32334.8
31880.8
31510.5
31223.4
30976.4
30806.1
30674.2
30583
30525.8
30477.2
30455.3
30435.6
30424.5
30416.4
30400.9
30396.3
30388.8
30376.2
30366.4
30356.2
30323.9
30280.2
30228.8
30151.6
30051.2
29951.8
29858.6
29732
99982.4
99929.3
99787.2
99434.7
98669.3
97212.1
94817.7
91457.3
87376.5
82951.9
78529.7
74285.6
70298.1
66569.8
63108.2
59882.5
56904.2
54128.2
51580.9
49206.2
47029.3
45022.6
43178.1
41492.6
39956.6
38563.4
37306.4
36179.8
35177.8
34297.2
33534.5
32883.3
32335
31880.1
31504.3
31210.8
30968.6
30804.2
30674
30582.1
30522.9
30474.6
30453
30432.1
30423.5
30415.3
30400.1
30395.4
30387.8
30375.2
30365.4
30355.3
30324.6
30279.6
30228.9
30152.9
30052.3
29954.2
29862.9
29736.6
99982.4
99929.4
99787.6
99435.8
98672.1
97218.1
94828.7
91474.8
87401.2
82983.8
78566.9
74327.1
70342.5
66617.5
63157.2
59931
56951.3
54171.6
51627
49251.8
47076.8
45072.5
43227.2
41537.4
39999
38604.4
37347.3
36219.8
35214.5
34329.8
33563.3
32909.8
32359.7
31902.4
31527.1
31238
30988.9
30815.1
30681
30587.8
30529.8
30479.9
30459
30437.6
30426.6
30417.4
30401.9
30396.4
30388.6
30376
30366.4
30356
30328.1
30281.7
30231.9
30157.7
30058.1
29961.4
29869.4
29742
99982.4
99929.5
99787.9
99436.8
98674.5
97223
94836.9
91486.2
87414.4
82996.8
78579.1
74337.7
70352.1
66624.9
63164.2
59938.8
56960.8
54183.7
51637.1
49261
47083.3
45075.8
43230
41542.6
40004.7
38609.4
37350.3
36221.2
35216.3
34332.5
33566.2
32911.8
32360
31901.6
31523.3
31226.5
30980.9
30813.6
30680.8
30587
30527.6
30477.8
30455.4
30433.6
30425.6
30416.3
30401.3
30395.7
30388
30375.9
30365.7
30354.5
30329.3
30282.5
30232.8
30159.5
30061.2
29965.3
29874
29746
99982.4
99929.6
99788.3
99437.8
98677.1
97228.7
94847.3
91502.6
87437.5
83026.4
78613.6
74376.3
70393.3
66669.4
63209.8
59983.8
57004.7
54224.2
51680.2
49303.5
47127.6
45122.5
43275.6
41584.4
40044.3
38647.7
37388.5
36258.5
35250.7
34363.1
33593.1
32936.7
32383.3
31922.6
31543.7
31251.9
31000.2
30824
30687.6
30592.3
30534.1
30482.5
30460.4
30438.8
30428.3
30418.1
30403
30396.7
30388.9
30377.2
30366.7
30354.8
30332
30285.7
30236.1
30164.2
30067.7
29972.7
29880.1
29750.3
99982.5
99929.7
99788.6
99438.7
98679.4
97233.2
94854.9
91513.2
87449.9
83038.7
78625.3
74386.6
70402.6
66676.4
63216.7
59991.4
57013.9
54235.7
51689.7
49312.3
47134
45125.6
43278.6
41589.5
40049.8
38652.5
37391.4
36260.1
35252.5
34365.7
33595.9
32938.6
32383.7
31921.9
31541.3
31241.4
30992.6
30822.7
30687.5
30591.5
30532.5
30480.7
30457
30434.6
30427.2
30417.1
30402.7
30396.2
30388.6
30377.3
30366.1
30353.1
30332.8
30288.2
30237.9
30166.7
30071.7
29976.9
29884
29753
99982.5
99929.8
99788.9
99439.7
98681.8
97238.6
94864.6
91528.6
87471.5
83066.3
78657.4
74422.5
70441
66718.1
63259.2
60033.3
57054.8
54273.5
51729.9
49352.1
47175.5
45169.3
43321.2
41628.5
40086.8
38688.3
37427
36294.9
35284.7
34394.3
33621.2
32962
32405.6
31941.6
31559.9
31265
31010.8
30832.9
30693.9
30596.6
30537.8
30485.2
30461
30439.9
30429.5
30418.7
30404.3
30397.2
30389.5
30378.6
30367
30352.6
30334
30293.8
30241.7
30171.7
30078
29984
29889.3
29756
99982.5
99929.9
99789.2
99440.6
98683.9
97242.7
94871.7
91538.4
87483
83077.9
78668.5
74432.3
70449.9
66724.7
63265.8
60040.7
57063.5
54284.3
51738.9
49360.5
47181.5
45172.3
43324.2
41633.5
40092
38692.9
37429.9
36296.6
35286.5
34396.9
33623.8
32963.9
32406.1
31941
31558.2
31255.6
31003.6
30831.6
30694
30595.8
30536.6
30483.9
30458.4
30435.5
30428.5
30417.8
30404.2
30397
30389.3
30378.8
30366.2
30350.6
30332.8
30299.6
30244.4
30174.9
30082.4
29988.1
29892.5
29757.4
99982.5
99930
99789.5
99441.5
98686.2
97247.8
94880.9
91553
87503.3
83103.7
78698.4
74465.8
70485.7
66763.7
63305.5
60079.7
57101.8
54319.7
51776.6
49397.6
47220.3
45213.3
43363.8
41669.9
40126.6
38726.4
37463.2
36329
35316.6
34423.8
33647.7
32985.7
32426.6
31959.5
31575.4
31277.3
31021.5
30841.7
30700
30600.7
30541.1
30488.1
30461.7
30440.9
30430.5
30419.1
30405.6
30398
30390.2
30380
30366.9
30350.5
30332.7
30305.9
30249
30180
30089.4
29995
29896.9
29759.2
99982.5
99930.1
99789.8
99442.3
98688.1
97251.6
94887.4
91562
87514
83114.6
78708.9
74475.1
70494.2
66770
63311.9
60086.7
57110.1
54329.8
51785.1
49405.6
47226
45216.1
43366.8
41674.7
40131.7
38730.8
37466
36330.8
35318.5
34426.3
33650.1
32987.6
32427.2
31959.1
31574.3
31269.1
31015.1
30840.5
30700.2
30599.8
30540.2
30487
30459.7
30436.5
30429.5
30418.3
30405.5
30398
30390.3
30380
30366
30349.3
30331.9
30309.1
30254.5
30183.6
30094
29998.4
29899.1
29759.5
99982.5
99930.1
99790.1
99443.2
98690.4
97256.4
94896.1
91575.7
87533.1
83138.7
78736.9
74506.3
70527.6
66806.4
63348.8
60123.1
57145.9
54362.9
51820.3
49440.3
47262.2
45254.5
43403.9
41708.7
40164
38762.2
37497.2
36361.1
35346.6
34451.4
33672.6
33008.1
32446.4
31976.5
31590
31289
31031.5
30850.2
30706
30604.3
30544.3
30490.8
30462.8
30441.9
30431.3
30419.4
30406.8
30398.9
30391.2
30381
30366.6
30349.6
30332.4
30310.9
30262.8
30189
30101
30004.5
29902.5
29760.3
99982.5
99930.2
99790.4
99443.9
98692.1
97259.9
94902
91584
87543
83148.9
78746.8
74515.2
70535.8
66812.4
63355
60129.8
57153.7
54372.5
51828.3
49447.9
47267.7
45257.2
43406.9
41713.3
40168.8
38766.3
37499.9
36362.9
35348.5
34453.9
33674.9
33009.9
32447.1
31976.2
31589.4
31281.9
31026.6
30849.1
30706.2
30603.4
30543.7
30490
30461.4
30437.6
30430.4
30418.6
30406.8
30398.8
30391.4
30380.7
30365.9
30349
30332.3
30311.3
30270.4
30192.7
30104.6
30006.6
29903.6
29759.8
99982.6
99930.3
99790.6
99444.7
98694.2
97264.5
94910.4
91597.1
87560.9
83171.5
78772.9
74544.3
70566.9
66846.5
63389.4
60163.8
57187.1
54403.5
51861.3
49480.3
47301.4
45293.1
43441.4
41745.1
40199.2
38795.7
37529.1
36391.2
35374.7
34477.4
33696.1
33029
32465
31992.5
31603.8
31300.2
31040.8
30858
30711.7
30607.6
30547.6
30493.4
30464.4
30442.8
30432
30419.4
30408.1
30399.7
30392.4
30381.4
30366.4
30349.6
30333.4
30312.4
30277.9
30198.6
30111.1
30011.6
29906.3
29760.2
99982.6
99930.3
99790.9
99445.4
98695.8
97267.6
94915.7
91604.6
87570.1
83181
78782.2
74552.7
70574.6
66852.1
63395.4
60170.1
57194.5
54412.5
51868.9
49487.5
47306.7
45295.7
43444.2
41749.5
40203.7
38799.7
37531.7
36393
35376.6
34479.8
33698.3
33030.8
32465.8
31992.3
31603.4
31294.6
31037.4
30857.2
30711.9
30606.8
30547.1
30492.6
30463.3
30438.7
30431
30418.9
30408.1
30399.6
30392.5
30381.1
30365.9
30349.2
30333.7
30312.9
30282.8
30203.6
30113.5
30012.7
29906.6
29759.4
99982.6
99930.4
99791.1
99446.2
98697.8
97272
94923.7
91617
87587
83202.2
78806.6
74579.8
70603.7
66883.9
63427.5
60201.9
57225.8
54441.6
51899.7
49517.8
47338.2
45329.3
43476.6
41779.3
40232.1
38827.2
37559
36419.4
35401.2
34501.8
33718.2
33048.7
32482.5
32007.5
31616.6
31310.8
31049.3
30865.2
30717.1
30610.8
30550.7
30495.6
30466.1
30443.8
30432.5
30419.9
30409.2
30400.4
30393.3
30381.8
30366.5
30349.8
30334.8
30314.2
30287.3
30211.2
30119.6
30017.2
29909
29759.9
99982.6
99930.5
99791.3
99446.8
98699.2
97274.9
94928.5
91623.9
87595.4
83211.1
78815.4
74587.8
70611
66889.4
63433.3
60208.1
57232.8
54450
51906.9
49524.7
47343.2
45331.9
43479.3
41783.5
40236.4
38830.9
37561.6
36421.2
35403.1
34504.1
33720.3
33050.5
32483.4
32007.6
31616.5
31306.6
31047.3
30864.9
30717.3
30610.2
30550.2
30494.9
30465.2
30439.8
30431.6
30419.7
30409
30400.4
30393.4
30381.5
30366.1
30349.7
30335.1
30314.7
30289.7
30216.9
30121.3
30017.8
29908.9
29759
99982.6
99930.5
99791.6
99447.6
98701.2
97279.1
94936.2
91635.7
87611.4
83230.9
78838.2
74613.2
70638.1
66919
63463.2
60237.7
57262.1
54477.4
51935.7
49553.1
47372.8
45363.3
43509.9
41811.4
40263.1
38856.8
37587.1
36445.9
35426
34524.7
33738.9
33067.2
32498.9
32021.8
31628.6
31320.9
31057.4
30872.2
30722.2
30614
30553.5
30497.7
30467.9
30444.7
30432.9
30420.7
30409.8
30401.1
30394.1
30382.1
30366.8
30350.4
30336
30316.1
30292.8
30224.7
30127.3
30022.2
29911.6
29760
99982.6
99930.6
99791.8
99448.1
98702.4
97281.6
94940.5
91641.9
87619.1
83239.2
78846.5
74620.8
70645.1
66924.3
63468.7
60243.6
57268.7
54485.1
51942.5
49559.5
47377.5
45365.8
43512.8
41815.4
40267.1
38860.3
37589.5
36447.8
35427.9
34527
33741
33069
32499.9
32022
31628.6
31317.7
31056.3
30872.3
30722.4
30613.6
30553
30497.1
30467.1
30440.8
30432.1
30420.7
30409.5
30401.1
30394.1
30381.8
30366.6
30350.4
30336.1
30316.4
30294
30229.4
30128.3
30022.5
29911.3
29759
99982.6
99930.7
99792
99448.8
98704.4
97285.7
94947.8
91653.1
87634.3
83257.8
78867.8
74644.4
70670.4
66951.9
63496.6
60271.2
57296.1
54510.9
51969.3
49586.1
47405.3
45395.1
43541.4
41841.6
40292.1
38884.6
37613.4
36470.8
35449.3
34546.2
33758.4
33084.6
32514.3
32035.3
31639.9
31330.4
31064.9
30878.9
30727.1
30617.1
30556.1
30499.6
30469.5
30445.6
30433.4
30421.7
30410.1
30401.8
30394.7
30382.4
30367.4
30351.3
30337
30317.6
30296.8
30236.6
30134.3
30027
29914.7
29760.8
99982.7
99930.8
99792.5
99450
98707.3
97291.8
94958.4
91668.6
87653.7
83279.1
78889.1
74664.2
70688.8
66966.2
63511.2
60287.2
57313.2
54530.6
51987.3
49602.8
47417.4
45401.9
43549.2
41852.1
40302.4
38893.5
37620
36475.8
35454.5
34552.3
33764
33089.4
32517.1
32036.4
31640
31323.7
31063.1
30879.9
30727.5
30616.5
30555
30498.2
30467.7
30436
30431.3
30422.2
30408.8
30401.5
30394.2
30381.5
30366.9
30351.5
30336.7
30317.6
30298.8
30243.9
30135.3
30026.7
29912.6
29757.5
99982.7
99930.7
99792.2
99448.7
98703.6
97283.3
94942.6
91644.2
87621.8
83243.3
78852.8
74629.8
70656.6
66939.5
63485.5
60258.2
57285
54497.7
51956.8
49574.1
47397.3
45389.3
43534.9
41834.7
40285.2
38878.4
37608.4
36466.5
35444.8
34541.3
33753.5
33080.6
32511.2
32033.2
31638.1
31329.9
31062.8
30879.1
30726.1
30616.9
30556.4
30500.3
30470.1
30449.3
30435.5
30423.2
30408.6
30402.4
30394.8
30381.7
30367.6
30353.6
30338.6
30318.3
30298.6
30234.7
30122
30013.7
29897.7
29751.4
99982.7
99930.9
99792.6
99450.1
98707.1
97291.2
94957.4
91667.5
87653.2
83279.8
78890.7
74666.4
70691.2
66969.4
63513.8
60290
57315.6
54529.8
51991
49603.6
47418.2
45403.9
43550.4
41852.7
40303.1
38894.1
37621
36477.5
35456.4
34553.8
33765.3
33091
32518.8
32038.8
31641.7
31326.8
31064.3
30881.9
30727.4
30616.9
30556.4
30499.7
30468.3
30438.9
30432.8
30423.6
30407
30401.6
30394.3
30381.8
30368.4
30356.2
30341.9
30319.9
30293.7
30226.7
30120.6
30013.5
29897.7
29754.9
99982.7
99930.9
99792.5
99449.3
98704.6
97284.5
94943.9
91644.8
87621.3
83241.6
78850.5
74626.9
70653.6
66935.2
63482.5
60253.8
57283.1
54495.6
51954.7
49572.3
47396.1
45387.8
43533.6
41833.8
40284.3
38877.4
37607.2
36465
35443.4
34539.9
33751.9
33079.3
32509.5
32031.4
31636.9
31327.5
31061.4
30878.2
30724.4
30615
30556.3
30500.3
30469.3
30445.9
30435.2
30424.3
30406.8
30401.4
30394.2
30382
30368.4
30356.1
30340.6
30315.4
30285.7
30226
30109.5
30001.7
29888.3
29749.4
99982.7
99931
99792.8
99450.2
98707.1
97290.6
94956.3
91666.1
87652.1
83279.9
78892
74668.5
70693.6
66972.9
63516.8
60293
57318.7
54529.6
51994.7
49604.3
47418.7
45405.5
43551.7
41853.7
40304.1
38895.2
37622.6
36479.4
35458.4
34555.5
33766.6
33092.6
32520.2
32041.3
31643.3
31329.2
31064.4
30882.4
30726.9
30615.6
30557.5
30500.3
30469.4
30442.2
30434.5
30425.2
30406.4
30401.7
30394.3
30382
30368
30356.3
30339
30313.5
30283.8
30218.5
30105.6
30000
29883.5
29746.8
99982.8
99931
99792.8
99449.9
98705.5
97285.7
94945.4
91645.7
87621.2
83240.2
78848.3
74624
70650.5
66930.7
63479.1
60248.4
57280.8
54493.4
51952.6
49570.6
47395.1
45386.4
43532.3
41832.8
40283.3
38876.3
37605.9
36463.6
35442
34538.6
33750.3
33078.1
32507.7
32029.9
31635.2
31325.8
31059.2
30876.7
30722.1
30611.6
30555.7
30500
30468.1
30444
30435.1
30424.7
30405.3
30400.7
30393.1
30380.9
30366.7
30355.9
30338.1
30313
30283.5
30197.1
30100.3
29994.4
29874.8
29739.2
99982.8
99931.1
99793.1
99450.5
98707.2
97290.1
94955.3
91664.3
87650.4
83279.4
78892.9
74670.5
70696.1
66976.6
63520.2
60297.4
57322.4
54529.7
51998.1
49604.7
47419.1
45407.2
43553.3
41855.1
40305.4
38896.7
37624.4
36481.5
35460.5
34557.2
33767.8
33094.3
32521.5
32043.4
31644.8
31330.9
31066.8
30884.1
30726.8
30613.8
30557.6
30500.7
30468.3
30441.3
30433.8
30424.9
30405.7
30401.6
30393.9
30382
30367.9
30358.3
30340.5
30315.2
30276
30187.7
30105.8
29994.2
29866.9
29731.6
99982.8
99931.2
99793.2
99450.5
98706.5
97287
94946.9
91646.9
87621.6
83239.2
78846.3
74621.1
70647.4
66925.9
63475.2
60242.5
57277.4
54490.7
51950.7
49569.2
47393.8
45385
43530.9
41831.7
40282.2
38875.1
37604.5
36462.2
35440.8
34537.2
33748.8
33076.8
32505.6
32028.8
31634.1
31324.7
31057.4
30874.4
30719.8
30608
30553.5
30498.7
30467.6
30442.6
30434
30423.6
30403.5
30399.7
30392
30380
30366
30356.7
30339.5
30315.1
30261.4
30184.7
30096.7
29983.8
29852.5
29718.1
99982.8
99931.3
99793.4
99450.9
98707.5
97289.9
94954.3
91662.3
87648.2
83278.1
78893.1
74672.2
70698.4
66980.2
63523.8
60302.7
57327.1
54530.2
52000.8
49605.2
47420.1
45408.9
43554.9
41856.5
40306.8
38898.3
37626.3
36483.6
35462.4
34558.9
33769.1
33095.7
32523
32046.1
31646.5
31332.1
31068.6
30885.8
30727.8
30613.1
30557.2
30500.8
30467
30441.5
30433.9
30424.6
30404.8
30401.1
30393.6
30381.7
30367.9
30358.2
30340.6
30316.4
30261.7
30188.9
30102.6
29977.2
29840.1
29706.1
99982.9
99931.4
99793.5
99451.1
98707.4
97288.2
94948.5
91648.3
87622.3
83238.6
78844.7
74618.3
70644.1
66921.1
63470.9
60235.1
57273
54487.5
51949.3
49567.7
47392.3
45383.8
43529.6
41830.4
40281
38873.7
37603.1
36460.8
35439.4
34535.8
33747.2
33075.1
32503.5
32026.9
31631.1
31321.1
31056.4
30871.8
30718.5
30604.7
30550.9
30497.4
30465
30440
30432.1
30423.2
30403.2
30398
30390
30377.9
30363.3
30351.6
30333.7
30309.6
30256.3
30180.1
30084.9
29959.9
29827.1
29694.9
99982.9
99931.4
99793.7
99451.4
98708
97289.9
94953.5
91660.1
87645.3
83275.9
78892.6
74673.4
70700.6
66983.7
63527.8
60307.5
57332.4
54531
52002.8
49605.8
47421.2
45410.5
43556.4
41857.7
40307.9
38899.4
37627.7
36485.3
35464
34560.4
33770.2
33097.2
32524.8
32048.5
31648.9
31335.3
31071.5
30887.7
30729.2
30613.5
30557.1
30501.2
30466.6
30443.2
30435.3
30426
30406
30400.6
30392.2
30380.3
30366.3
30354.9
30335.1
30309
30253.2
30180.7
30084.6
29958.2
29825.9
29693.8
99982.9
99931.5
99793.9
99451.7
98708.3
97289.4
94950.1
91649.8
87623.3
83238.7
78843.5
74615.8
70641
66916.2
63466.2
60229.1
57267.9
54484.1
51948.2
49566.2
47390.5
45382.5
43528.4
41829.2
40279.6
38872.3
37601.5
36459.2
35437.8
34534
33745
33073.3
32501.2
32025.3
31628.1
31315.5
31053.3
30868.1
30717.2