/*--------------------------------*- C++ -*----------------------------------*\
| =========                 |                                                 |
| \\      /  F ield         | OpenFOAM: The Open Source CFD Toolbox           |
|  \\    /   O peration     | Version:  5.x                                   |
|   \\  /    A nd           | Web:      www.OpenFOAM.org                      |
|    \\/     M anipulation  |                                                 |
\*---------------------------------------------------------------------------*/
/*   Windows 32 and 64 bit porting by blueCAPE: http://www.bluecape.com.pt   *\
|  Based on Windows porting (2.0.x v4) by Symscape: http://www.symscape.com   |
\*---------------------------------------------------------------------------*/
FoamFile
{
    version     2.0;
    format      ascii;
    class       surfaceScalarField;
    location    "0.009";
    object      phi;
}
// * * * * * * * * * * * * * * * * * * * * * * * * * * * * * * * * * * * * * //

dimensions      [1 0 -1 0 0 0 0];

internalField   nonuniform List<scalar> 
19740
(
0.00262831
-5.20408e-005
0.00849757
-0.000181833
0.0238861
-0.000414475
0.0588201
-0.000756165
0.127587
-0.00114649
0.245622
-0.00152174
0.416431
-0.0018223
0.627337
-0.00178217
0.854501
-0.00157792
1.07611
-0.00137742
1.28011
-0.00128151
1.46255
-0.00114597
1.62387
-0.00100297
1.7654
-0.00075502
1.88924
-0.000517945
1.9958
-0.000665468
2.08917
0.000830705
2.16791
-0.00177061
2.23218
0.00133682
2.29556
-0.000263388
2.34034
-0.000379628
2.37219
0.000387225
2.40679
0.000702376
2.44026
0.000676869
2.46027
0.000425231
2.46635
7.69972e-005
2.46941
0.000172228
2.47855
0.000578902
2.49277
0.00106758
2.5038
0.0010766
2.50482
0.000771269
2.49776
0.000265616
2.48711
0.000776976
2.47672
-0.000268132
2.4708
-0.000112176
2.4753
0.000141812
2.48348
0.00332681
2.4885
0.000612684
2.48873
0.000130273
2.48732
0.00115422
2.48116
0.00204524
2.46965
-0.000919974
2.45943
0.000647708
2.45344
0.000105387
2.45222
-0.000662499
2.4548
-0.00243977
2.46638
-0.00438996
2.48698
-0.00159367
2.50568
-0.00184914
2.52144
-0.00461887
2.53441
-0.00536973
2.54539
-0.00505297
2.55543
-0.00417374
2.56399
-0.0057894
2.57092
-0.00595197
2.57783
-0.00352146
2.58364
-0.000473757
2.57909
0.000456842
2.54896
0.00381824
0.00239202
0.00252181
-9.42297e-005
0.0081297
-0.00032211
0.0228146
-0.00072721
0.0561055
-0.00127124
0.121623
-0.00183538
0.23413
-0.00222835
0.397139
-0.00243501
0.598771
-0.0020487
0.816374
-0.00151628
1.02901
-0.00109217
1.22499
-0.00102006
1.4004
-0.000870526
1.55561
-0.000765787
1.69193
-0.000489185
1.81106
-8.69119e-005
1.91389
-0.000531243
2.00399
0.00220905
2.07996
-0.00298976
2.14249
0.00333141
2.20343
6.57418e-005
2.24605
-0.000649243
2.27824
0.000917027
2.31363
0.00154386
2.34551
0.00154835
2.36301
0.000702155
2.36904
-0.000201188
2.37494
2.62817e-005
2.38704
0.00114988
2.40139
0.00219208
2.4101
0.0022069
2.40896
0.00100526
2.4013
0.000192122
2.3919
6.90224e-006
2.38452
-0.00174944
2.38366
-0.0038348
2.39243
0.00349724
2.39943
0.00516297
2.40291
0.000974747
2.40243
2.94995e-005
2.40057
0.00192618
2.39313
0.00265458
2.38239
-0.00331826
2.37587
-0.000704399
2.37195
0.000487038
2.37291
-0.00235385
2.37841
-0.0051238
2.39351
-0.00435443
2.4093
-0.00215031
2.4226
-0.00418579
2.43279
-0.00746323
2.44067
-0.00858566
2.44687
-0.0100383
2.45218
-0.00843633
2.45657
-0.00703154
2.46107
-0.00642168
2.46451
-0.00459492
2.46501
0.00152487
2.44708
-0.000591501
2.39559
0.00709808
0.00434789
0.0024405
-0.000137952
0.00786969
-0.000471738
0.0221022
-0.00107876
0.0543962
-0.00190953
0.118009
-0.00282101
0.227341
-0.00354667
0.385874
-0.00402107
0.582088
-0.00361087
0.793931
-0.00291154
1.00101
-0.00232318
1.1919
-0.0021393
1.36278
-0.00187072
1.51399
-0.00165374
1.64675
-0.00114331
1.76289
-0.000622158
1.8634
-0.00109699
1.95025
0.00214112
2.02516
-0.00336853
2.08734
0.00326035
2.14176
0.000223675
2.18824
-0.000552688
2.2222
0.00113729
2.2497
0.00205611
2.27712
0.00194638
2.30018
0.00111534
2.31266
0.000160963
2.3162
0.000408704
2.31919
0.00181091
2.32743
0.00291704
2.33835
0.00273583
2.34438
0.00203624
2.3417
0.000777477
2.33378
0.000758759
2.32416
-0.00128162
2.31619
-0.00300506
2.31495
0.00215995
2.32033
0.00764236
2.32684
0.0010717
2.32901
-9.20569e-006
2.32915
0.00234168
2.32722
0.00307332
2.32126
-0.00143051
2.31086
-0.0018805
2.30166
0.00113854
2.29659
-0.00206689
2.29465
-0.00508576
2.29502
-0.00445214
2.30023
-0.003849
2.31116
-0.0038764
2.32007
-0.00644988
2.32781
-0.00846306
2.33377
-0.0118823
2.33767
-0.0104229
2.34077
-0.00763105
2.34324
-0.00449218
2.34435
-0.00121804
2.34532
0.00273765
2.33127
0.00281239
2.29171
0.0124996
0.0111412
0.00234532
-0.000174357
0.00754393
-0.000590832
0.0211547
-0.00135034
0.0519944
-0.00235671
0.112717
-0.00344473
0.217102
-0.00419903
0.368603
-0.00462278
0.556395
-0.00393934
0.759496
-0.00295804
0.958314
-0.00213416
1.1418
-0.00196969
1.30617
-0.00166688
1.4517
-0.00148175
1.57963
-0.000907818
1.69134
-0.000400599
1.78853
-0.000720804
1.87182
0.00179748
1.9447
-0.00192211
2.00619
0.00263318
2.05406
0.0012161
2.10249
0.00019814
2.13993
0.00124089
2.16265
0.00222574
2.18387
0.00239804
2.20895
0.0016811
2.22901
0.00074581
2.23643
0.000823385
2.23491
0.00170909
2.2344
0.00279139
2.24096
0.00322856
2.25154
0.00207321
2.25794
0.00116978
2.25615
0.000425509
2.25008
-0.00182219
2.24137
-0.00242068
2.23446
0.000960398
2.23041
0.00801934
2.23419
-0.000683387
2.24004
0.00205997
2.24464
0.00228246
2.24611
0.00240867
2.24673
-0.00130482
2.24488
-0.00153233
2.23742
-0.000568109
2.23023
-0.00312067
2.22482
-0.00544196
2.22295
-0.00498523
2.22235
-0.00396074
2.22335
-0.00469465
2.22794
-0.00721262
2.23333
-0.00817883
2.23752
-0.0100479
2.2405
-0.0089172
2.24211
-0.0060966
2.2422
-0.00348711
2.24033
0.00157497
2.23754
0.00811412
2.21221
0.0105233
2.15236
0.021213
0.0249544
0.0022672
-0.000211071
0.00729345
-0.000714798
0.0204677
-0.00164688
0.0503461
-0.00289405
0.109234
-0.00429279
0.210575
-0.00534035
0.357798
-0.00601363
0.540419
-0.00532373
0.738015
-0.00418951
0.931528
-0.00321635
1.11015
-0.00295883
1.2702
-0.00253728
1.41192
-0.00226559
1.53642
-0.00144342
1.64534
-0.00106688
1.74003
-0.000882232
1.82106
0.00100121
1.89201
-0.00112151
1.95208
0.00143231
1.99898
0.00153772
2.04568
0.000652048
2.08192
0.001418
2.1042
0.00236984
2.12477
0.00259467
2.14873
0.0021111
2.16792
0.0015351
2.17511
0.00161616
2.17368
0.0020915
2.1731
0.00298766
2.17901
0.00341089
2.18885
0.00248558
2.19481
0.00199503
2.19301
0.00154968
2.18636
-0.000627983
2.17733
-0.000261624
2.1699
0.00131439
2.16578
0.00774457
2.16791
-0.00211534
2.1731
0.00347876
2.17714
0.00295679
2.17788
0.0027936
2.17748
-0.000761514
2.17442
-0.000395716
2.1672
-0.000726303
2.15981
-0.00342609
2.154
-0.00464905
2.15077
-0.00468162
2.14948
-0.00326451
2.14978
-0.00469726
2.15387
-0.00737398
2.15938
-0.00750435
2.16368
-0.00752443
2.16657
-0.00771514
2.16825
-0.00404884
2.16879
0.000193186
2.1668
0.0063763
2.16389
0.017216
2.1388
0.0196283
2.07967
0.0303381
0.0322014
0.0021814
-0.00024234
0.00700262
-0.000816272
0.0196244
-0.00188149
0.0482104
-0.00328209
0.104521
-0.00485666
0.201423
-0.00594013
0.342287
-0.00659758
0.51723
-0.00568801
0.706819
-0.00431601
0.892729
-0.00311887
1.06452
-0.00285572
1.21853
-0.00239671
1.35497
-0.00213504
1.475
-0.00124919
1.57988
-0.000754321
1.67109
-0.000414862
1.74951
0.000799437
1.81802
0.000171963
1.87551
0.00094619
1.92147
0.00247329
1.96716
0.00107645
2.00122
0.00138091
2.02306
0.00258017
2.04499
0.0030984
2.06913
0.00267102
2.08636
0.00190607
2.09175
0.00170948
2.09095
0.00220704
2.09316
0.00301888
2.1016
0.00372626
2.11144
0.00294061
2.1153
0.00226841
2.11181
0.00138307
2.10533
-0.000905764
2.09696
-0.00116042
2.09104
0.000846383
2.089
0.00705588
2.09583
-0.00116468
2.10138
0.00357314
2.10443
0.00312612
2.10515
0.00229473
2.10489
-0.000428742
2.10075
-0.000750004
2.09116
-0.000987513
2.08448
-0.00350211
2.08119
-0.00507449
2.07998
-0.00473381
2.08003
-0.00364477
2.08372
-0.00504004
2.09073
-0.0067916
2.09605
-0.00724418
2.10136
-0.00667136
2.10231
-0.00550002
2.10345
-0.00306948
2.1046
0.00306689
2.10332
0.010451
2.10137
0.0249227
2.0796
0.026245
2.02413
0.0357443
0.0334044
0.00210718
-0.000273153
0.00676405
-0.000919363
0.0189685
-0.00213068
0.0466342
-0.00373406
0.101189
-0.00558661
0.19518
-0.00692551
0.331966
-0.00781907
0.501999
-0.00692339
0.686351
-0.00541278
0.867203
-0.00405815
1.03435
-0.00373422
1.18424
-0.00316308
1.31705
-0.00281779
1.43379
-0.00170397
1.53599
-0.00133936
1.62486
1.40154e-005
1.70109
0.000257737
1.7678
0.000877728
1.82412
-0.000126807
1.86881
0.00286285
1.91284
0.00153624
1.94627
0.00150039
1.96755
0.00273043
1.98824
0.00363288
2.01133
0.00272087
2.02845
0.00269176
2.03416
0.00248783
2.03319
0.00293479
2.03442
0.00316732
2.04176
0.00388165
2.05126
0.00336185
2.05559
0.00278611
2.05261
0.00226367
2.04561
0.00034488
2.0367
-0.000221153
2.03043
0.00130574
2.02769
0.00600033
2.03251
-0.00122445
2.03798
0.00426212
2.04086
0.00358681
2.04089
0.00247588
2.04021
0.000355043
2.03592
0.000495865
2.02672
-0.00188664
2.02046
-0.00450029
2.01645
-0.0051315
2.01456
-0.00403971
2.01344
-0.00299231
2.01663
-0.00524157
2.02398
-0.00610548
2.03016
-0.00702575
2.03594
-0.00525734
2.03917
-0.00505212
2.04153
-0.00170553
2.04383
0.00560024
2.0438
0.0125862
2.04399
0.0284255
2.03075
0.0310093
1.99097
0.040996
0.0351657
0.00202925
-0.000299874
0.00650236
-0.00100577
0.0182127
-0.00233202
0.0447244
-0.00407053
0.0969716
-0.00609322
0.186971
-0.00747684
0.317998
-0.00838071
0.481018
-0.0073102
0.658013
-0.00559357
0.83186
-0.00403592
0.992691
-0.00368505
1.13699
-0.00307049
1.26492
-0.0027343
1.3775
-0.00156239
1.47596
-0.00122199
1.56159
0.000173128
1.63533
-9.02032e-005
1.6997
0.00202884
1.75375
-0.000604733
1.79724
0.00370884
1.84032
0.00186572
1.87221
0.00145427
1.89305
0.00292683
1.91425
0.00378462
1.93711
0.00358583
1.953
0.00284487
1.95791
0.00236616
1.95763
0.00251475
1.96052
0.00327866
1.96894
0.00427426
1.97807
0.00394858
1.98123
0.00313812
1.97765
0.00215163
1.97143
0.000125805
1.96357
-0.000839938
1.95809
0.000654105
1.95664
0.00527439
1.96394
0.000191849
1.96883
0.00484721
1.97146
0.00365673
1.97199
0.00145052
1.97169
-0.000499034
1.96685
-0.00042857
1.95701
-0.00225343
1.9509
-0.00450704
1.94807
-0.00526188
1.94759
-0.00433811
1.94834
-0.00372286
1.95427
-0.0055001
1.96288
-0.00638405
1.96841
-0.0067943
1.97351
-0.00447627
1.97714
-0.00497812
1.97984
-0.000528704
1.98251
0.00719821
1.98303
0.0138258
1.98328
0.0298167
1.97193
0.0348491
1.93438
0.0456781
0.038055
0.00195932
-0.000325711
0.00627711
-0.00109165
0.0175915
-0.00254032
0.043228
-0.00445121
0.0938036
-0.00672089
0.18103
-0.00832829
0.308177
-0.00945396
0.466539
-0.00841384
0.638573
-0.00657965
0.807612
-0.00487502
0.964026
-0.00445847
1.1044
-0.00373898
1.22885
-0.00332086
1.33829
-0.00194766
1.43417
-0.00168732
1.51755
-1.30035e-005
1.58925
-0.000799505
1.65193
0.0026375
1.70488
-0.00158637
1.74718
0.00378721
1.78866
0.00217639
1.81987
0.00149487
1.84014
0.00304333
1.86031
0.00346465
1.8823
0.00447305
1.89799
0.00382852
1.90301
0.00252428
1.90249
0.00241046
1.90463
0.00340394
1.91234
0.00438477
1.92128
0.00425028
1.92481
0.00345576
1.92152
0.00256126
1.91467
0.0010436
1.90613
-0.000720869
1.90068
0.00155558
1.89876
0.0045624
1.90473
0.00153195
1.9098
0.00490582
1.91222
0.00413
1.91197
0.00219063
1.91113
0.000690108
1.90766
9.94788e-005
1.89709
-0.00148964
1.89064
-0.00447341
1.88744
-0.00549054
1.88658
-0.00430097
1.8856
-0.00356233
1.89078
-0.00533115
1.90054
-0.00637878
1.90802
-0.00601721
1.91297
-0.00413663
1.91743
-0.00435385
1.92049
-4.73026e-006
1.92309
0.00714779
1.92412
0.0141519
1.9251
0.0298241
1.91781
0.0382703
1.88928
0.0500719
0.0424087
0.0018881
-0.000348425
0.00604
-0.00116502
0.0169098
-0.00271165
0.0415105
-0.0047438
0.0900121
-0.00717303
0.173639
-0.0088357
0.295563
-0.00999137
0.447514
-0.00881451
0.612776
-0.00680589
0.775345
-0.00491296
0.925916
-0.00445913
1.06112
-0.00369231
1.18104
-0.00328429
1.28663
-0.00183047
1.37905
-0.00158193
1.45944
0.000641755
1.52872
-0.000957055
1.58921
0.00372822
1.64009
-0.0020892
1.68102
0.0048936
1.72169
0.00241004
1.75176
0.00144237
1.7715
0.00318333
1.79165
0.00437467
1.8133
0.00442186
1.82833
0.00367932
1.83309
0.00287491
1.83305
0.00271046
1.83596
0.00356169
1.84397
0.00483901
1.85263
0.00490499
1.85571
0.00389744
1.85241
0.0025372
1.8466
0.0016601
1.83928
-0.00110177
1.83401
0.000689598
1.83248
0.00352356
1.83943
0.00229439
1.84408
0.00548012
1.84661
0.00434239
1.84708
0.00211928
1.84685
0.00118778
1.84301
-0.00029629
1.8324
-0.00151331
1.82616
-0.00445647
1.8233
-0.00572655
1.82259
-0.00511054
1.82345
-0.0047547
1.82971
-0.00491768
1.83913
-0.00583777
1.8466
-0.00601115
1.85105
-0.00454223
1.85513
-0.00405012
1.85823
-0.000859355
1.86075
0.00599967
1.86212
0.0141929
1.86308
0.0299108
1.85624
0.0408535
1.82851
0.0531863
0.0462853
0.00182257
-0.000370052
0.00582868
-0.00123657
0.0163252
-0.00288495
0.0400983
-0.00506546
0.0870157
-0.00771208
0.16801
-0.0095731
0.28625
-0.0109357
0.433785
-0.0098025
0.594353
-0.00770067
0.75237
-0.00567778
0.898742
-0.00514562
1.0302
-0.00427804
1.14681
-0.00380191
1.2494
-0.00215853
1.33934
-0.00203758
1.4176
0.00064175
1.48496
-0.00158421
1.54386
0.00471291
1.59374
-0.00313763
1.63343
0.00607582
1.6726
0.00264588
1.70214
0.0013748
1.72125
0.0032366
1.74027
0.00385988
1.76116
0.00423683
1.77624
0.0035029
1.7812
0.00368037
1.78077
0.00321857
1.7827
0.00354926
1.78995
0.00485115
1.7986
0.0051143
1.80235
0.00412653
1.79957
0.00298921
1.79329
0.00187424
1.78518
-0.0015914
1.77997
0.00104521
1.77774
0.00283996
1.78358
0.00315426
1.78854
0.00533941
1.79111
0.00476534
1.79111
0.002562
1.79047
0.00124727
1.78684
-0.000126989
1.77686
-6.15979e-005
1.77056
-0.00414515
1.76723
-0.00561461
1.76638
-0.00531557
1.76603
-0.00529088
1.77129
-0.00470673
1.78154
-0.0054294
1.78972
-0.00585068
1.79437
-0.00489406
1.79823
-0.00386388
1.80131
-0.00214607
1.80379
0.00471976
1.80554
0.0143039
1.80676
0.0303403
1.80151
0.0425869
1.77834
0.0550192
0.0485109
0.00175718
-0.000389255
0.00561264
-0.00129865
0.0157069
-0.00303008
0.0385456
-0.00531997
0.0835914
-0.00811303
0.161331
-0.0100384
0.274824
-0.0114462
0.416496
-0.0102105
0.570826
-0.00796369
0.722858
-0.00575454
0.863819
-0.00517953
0.990484
-0.0042635
1.1029
-0.00379588
1.20193
-0.00207455
1.28865
-0.0019328
1.3641
0.000792269
1.42918
-0.0019337
1.48598
0.00562035
1.53395
-0.00374114
1.57233
0.00606701
1.61074
0.002943
1.63927
0.00128506
1.65786
0.00335215
1.67669
0.00492704
1.69719
0.00520155
1.71176
0.00442054
1.71662
0.00325671
1.71658
0.00279945
1.71903
0.00367638
1.72638
0.00531712
1.73475
0.00581149
1.73818
0.00460113
1.73542
0.00298403
1.73009
0.00260351
1.72328
-0.00113345
1.71808
0.000801924
1.71605
0.00166925
1.72217
0.00388556
1.72683
0.00567321
1.72941
0.00516191
1.7298
0.00305573
1.72969
0.00209513
1.7259
4.68418e-005
1.71666
-0.000654607
1.71043
-0.00424847
1.70733
-0.00575451
1.7068
-0.00574673
1.70717
-0.00626868
1.71293
-0.00504428
1.72331
-0.00565469
1.73105
-0.00585677
1.73646
-0.0057261
1.74063
-0.0046054
1.7437
-0.00384469
1.74663
0.00313526
1.74876
0.0137879
1.75002
0.0304428
1.74546
0.0426795
1.72347
0.0551123
0.0488132
0.00169601
-0.000407313
0.00541527
-0.00135825
0.0151592
-0.00317432
0.0372189
-0.0055919
0.0807697
-0.00857503
0.156018
-0.0106775
0.26602
-0.0122777
0.403508
-0.0110963
0.553399
-0.00878
0.701123
-0.00644603
0.838105
-0.00579268
0.961211
-0.00477559
1.07046
-0.00424696
1.16663
-0.00235328
1.25098
-0.00232377
1.32441
0.00115419
1.38769
-0.00267627
1.44302
0.0071568
1.49004
-0.0047832
1.5272
0.00654891
1.56413
0.00324958
1.59224
0.00119523
1.61023
0.00349884
1.62794
0.00573158
1.64769
0.00541504
1.66237
0.00480772
1.66751
0.00311327
1.66711
0.00253518
1.66852
0.00364902
1.67505
0.00530679
1.68344
0.00598325
1.68763
0.00478617
1.68555
0.00343735
1.67991
0.00255249
1.67231
-0.00121488
1.66709
0.00102846
1.66426
0.00207062
1.66948
0.00436439
1.67452
0.006021
1.67737
0.00571988
1.67764
0.00336586
1.67728
0.00252014
1.67381
0.00103638
1.66522
-0.00117513
1.65942
-0.0051076
1.65625
-0.00607443
1.65487
-0.00547439
1.65495
-0.00604205
1.65882
-0.00539662
1.66924
-0.00595817
1.67796
-0.00622778
1.68353
-0.00628036
1.68857
-0.00565535
1.69191
-0.00448387
1.69515
0.00233124
1.69775
0.0130632
1.6995
0.0296695
1.69756
0.0413238
1.68337
0.0542964
0.0492086
0.00163578
-0.000423454
0.00521754
-0.00141057
0.0145956
-0.00329716
0.0358085
-0.00581236
0.0776639
-0.00892868
0.14996
-0.0111031
0.25564
-0.0127586
0.387761
-0.0115057
0.531905
-0.00906341
0.674092
-0.00654842
0.806054
-0.00584549
0.924714
-0.00478507
1.03008
-0.00426994
1.12294
-0.00229851
1.20431
-0.00230428
1.27514
0.00153043
1.33625
-0.00296354
1.38957
0.00726792
1.4348
-0.0054902
1.47077
0.00725899
1.50697
0.00370644
1.53408
0.00111469
1.55159
0.00339205
1.56913
0.00535426
1.58848
0.00585768
1.60261
0.00507481
1.6076
0.00357749
1.60759
0.00280257
1.60955
0.00374018
1.61621
0.00572719
1.62425
0.00666599
1.62804
0.0053066
1.62586
0.00362169
1.62099
0.00284393
1.61462
-0.00116727
1.60953
0.00108153
1.60704
0.0013841
1.61219
0.00525457
1.61688
0.00690415
1.61963
0.00633847
1.62003
0.00309348
1.62019
0.00160337
1.61703
0.000148974
1.60884
-0.00198851
1.60259
-0.00538047
1.59931
-0.00619991
1.59852
-0.00578356
1.59903
-0.00677384
1.60388
-0.00629517
1.61445
-0.00679836
1.62301
-0.0069846
1.62896
-0.00797268
1.63412
-0.0072998
1.63774
-0.00493502
1.64153
0.00133151
1.64458
0.0116438
1.64679
0.0276465
1.64611
0.038872
1.63485
0.0532776
0.0496817
0.00157881
-0.000438483
0.00503374
-0.00146015
0.0140843
-0.00341727
0.0345668
-0.00604203
0.0750158
-0.00932408
0.144961
-0.0116584
0.247341
-0.0134907
0.3755
-0.0123006
0.515447
-0.00980586
0.653559
-0.00716912
0.781756
-0.00639126
0.897044
-0.00523724
0.9994
-0.00466407
1.08953
-0.00254426
1.16863
-0.00266084
1.23752
0.00157657
1.29697
-0.00368432
1.34891
0.00797078
1.39318
-0.006516
1.42805
0.0077561
1.46285
0.00372035
1.48943
0.00110366
1.50641
0.00331922
1.52305
0.00539313
1.5417
0.00602026
1.55578
0.0053698
1.56089
0.00441132
1.56059
0.00323728
1.56178
0.00368423
1.5678
0.00572228
1.57584
0.00684923
1.58018
0.00550431
1.57856
0.00393745
1.57342
0.00291955
1.56637
-0.001177
1.56124
0.00143068
1.5582
0.000910176
1.56292
0.00478806
1.56793
0.00762612
1.57091
0.00673086
1.57136
0.00319385
1.57124
0.00205636
1.56848
0.00115241
1.56048
-0.00198898
1.55494
-0.00636573
1.55181
-0.00654837
1.55059
-0.0056519
1.55066
-0.00660671
1.5541
-0.00704043
1.56446
-0.0080273
1.57346
-0.00794057
1.57975
-0.00942175
1.58501
-0.00834377
1.58962
-0.0054346
1.59345
0.000639233
1.59664
0.00996075
1.59931
0.0248621
1.60008
0.0364844
1.59397
0.0522633
0.0515484
0.00152318
-0.000451974
0.00485213
-0.00150405
0.0135685
-0.00352078
0.0332802
-0.00623223
0.0721879
-0.00963492
0.139447
-0.0120474
0.237884
-0.013942
0.361126
-0.0127062
0.495777
-0.0101037
0.628765
-0.00730207
0.752303
-0.00646627
0.863458
-0.00526309
0.962213
-0.0047078
1.04928
-0.00251172
1.12562
-0.00267991
1.19207
0.00183673
1.24948
-0.00403156
1.29954
0.00907676
1.34211
-0.00723182
1.37589
0.00846225
1.40997
0.0044626
1.43558
0.000908282
1.45212
0.00339095
1.46866
0.00572884
1.48693
0.00643265
1.50035
0.00562109
1.50522
0.00376082
1.50532
0.00275575
1.50718
0.00374484
1.51343
0.00609054
1.52106
0.00749828
1.52482
0.0060782
1.52294
0.00415532
1.5184
0.00317905
1.51243
-0.0010739
1.50758
0.000914399
1.5051
0.000527385
1.50967
0.00571054
1.51427
0.00875469
1.51697
0.00707025
1.51748
0.00306065
1.51754
0.0017305
1.51508
0.000676373
1.50747
-0.00199709
1.50147
-0.00652179
1.49841
-0.00686781
1.49779
-0.00613722
1.49865
-0.00729927
1.503
-0.00859301
1.51322
-0.00940217
1.5222
-0.00926899
1.52873
-0.0109977
1.5341
-0.00956856
1.53894
-0.00647754
1.54319
-0.000558758
1.54662
0.00771993
1.54963
0.0217286
1.55116
0.0338373
1.54694
0.0518366
0.0549206
0.0014702
-0.000464432
0.0046813
-0.00154521
0.0130924
-0.00362044
0.0321212
-0.00642611
0.0697097
-0.00997323
0.134757
-0.0125312
0.230078
-0.0145879
0.349574
-0.0134199
0.480255
-0.0107789
0.609389
-0.00786237
0.729367
-0.00695407
0.837334
-0.00566475
0.933226
-0.00505235
1.0177
-0.00271889
1.09187
-0.00300037
1.15649
0.00186155
1.21232
-0.00471257
1.26106
0.00981144
1.30269
-0.00826439
1.33548
0.00895658
1.36825
0.00548013
1.39326
0.000829396
1.40928
0.00353654
1.42509
0.0057948
1.44276
0.00660355
1.45603
0.00589574
1.46087
0.00343321
1.46071
0.00247478
1.46201
0.00373683
1.4678
0.00615765
1.47542
0.00774106
1.47957
0.00631837
1.47811
0.00430804
1.47333
0.00306724
1.46683
-0.00120642
1.46194
0.000639156
1.45909
-0.000636351
1.46364
0.0052771
1.46847
0.0092316
1.47132
0.00745568
1.4718
0.003211
1.47176
0.00197625
1.4687
0.00184949
1.46178
-0.00273156
1.4566
-0.00723314
1.45357
-0.00702849
1.45229
-0.00599542
1.45295
-0.0079041
1.45683
-0.0100986
1.46689
-0.010827
1.47628
-0.0107742
1.48272
-0.01176
1.48863
-0.0107414
1.49371
-0.00817585
1.49796
-0.00232756
1.50151
0.00544097
1.50473
0.0189304
1.50687
0.0312727
1.50554
0.0511674
0.0593257
0.00141874
-0.000475636
0.00451404
-0.00158186
0.0126188
-0.00370711
0.0309435
-0.00658951
0.0671258
-0.0102458
0.129722
-0.0128857
0.22144
-0.0150116
0.336425
-0.0138179
0.462225
-0.0110908
0.586617
-0.00802605
0.702271
-0.0070525
0.806392
-0.00570389
0.898941
-0.00510989
0.980575
-0.00270448
1.05218
-0.00303742
1.11452
0.00221706
1.16845
-0.00504663
1.21542
0.0109274
1.25548
-0.00903995
1.28724
0.0096365
1.31931
0.00509624
1.3434
0.0005817
1.35904
0.00335104
1.37472
0.00609474
1.39197
0.00701632
1.4046
0.00618139
1.40924
0.00391251
1.40947
0.00261409
1.41138
0.00371623
1.41735
0.00647661
1.42456
0.00835833
1.42812
0.00692976
1.42638
0.00454929
1.42207
0.00328212
1.41649
-0.00125202
1.41193
0.000258549
1.40965
-0.000566259
1.41392
0.00615797
1.41837
0.0102439
1.42089
0.00777415
1.42132
0.00342606
1.4211
0.00313372
1.41932
0.00222795
1.41207
-0.00259552
1.40643
-0.00735797
1.40363
-0.00759056
1.40309
-0.00672397
1.40378
-0.00888997
1.40854
-0.0118082
1.41874
-0.0121071
1.42788
-0.0120788
1.43434
-0.0127712
1.44024
-0.0121253
1.44526
-0.0101875
1.44975
-0.00488139
1.45367
0.00327316
1.45716
0.0163386
1.45961
0.0288067
1.45887
0.0504755
0.0624785
0.0013695
-0.000485911
0.00435545
-0.00161591
0.0121761
-0.00378951
0.0298637
-0.00675287
0.0648116
-0.0105354
0.12533
-0.013308
0.214111
-0.0155837
0.325557
-0.0144594
0.447604
-0.0117069
0.568353
-0.00853474
0.68064
-0.00749125
0.781748
-0.00606039
0.871583
-0.00541248
0.950749
-0.00288327
1.02029
-0.00333968
1.0809
0.00230461
1.13331
-0.00568255
1.17903
0.0116679
1.21817
-0.0100789
1.24901
0.0101527
1.27987
0.00468726
1.30334
0.000490972
1.31847
0.00334792
1.33352
0.00616156
1.35024
0.00719866
1.3627
0.0064756
1.36724
0.00472819
1.36722
0.00290657
1.36867
0.0037064
1.37429
0.00653385
1.38149
0.00863584
1.38537
0.00723054
1.384
0.00460035
1.37953
0.00332348
1.37354
-0.00109412
1.36894
0.000446019
1.36638
-0.00115947
1.37072
0.00612943
1.37534
0.0107243
1.37801
0.00806391
1.37838
0.00357564
1.3784
0.00323811
1.37622
0.0027012
1.36897
-0.00268504
1.36404
-0.00790332
1.36093
-0.00762086
1.36017
-0.00711022
1.36066
-0.00972448
1.3651
-0.0132477
1.37541
-0.0133715
1.3846
-0.0131268
1.3905
-0.0134278
1.39636
-0.0136783
1.40128
-0.0121295
1.40562
-0.00724666
1.40941
0.00154742
1.41289
0.0141092
1.41549
0.0264255
1.41555
0.0491948
0.0634699
0.00132183
-0.000495154
0.00420108
-0.00164633
0.0117401
-0.0038617
0.0287824
-0.0068925
0.0624435
-0.0107739
0.12072
-0.01363
0.206201
-0.015981
0.313505
-0.0148473
0.431051
-0.0120276
0.547411
-0.00872257
0.655685
-0.00760761
0.753214
-0.00610791
0.839941
-0.00547584
0.916469
-0.00288153
0.983626
-0.00338026
1.04211
0.00252164
1.09276
-0.00604352
1.13683
0.0126572
1.17451
-0.0108988
1.20438
0.0108136
1.23455
0.00563769
1.25715
0.000213947
1.27194
0.00327113
1.28685
0.00643809
1.30315
0.00759369
1.31495
0.00674815
1.31929
0.00409543
1.31966
0.00245184
1.32169
0.00368563
1.32745
0.00683243
1.33423
0.00921155
1.33754
0.00782112
1.33587
0.00487424
1.33176
0.00341057
1.32656
-0.00152768
1.32228
0.000162193
1.32028
-0.00183948
1.3244
0.00686145
1.32864
0.0116934
1.33092
0.00846102
1.33125
0.00356896
1.33091
0.00364687
1.32905
0.00256426
1.32244
-0.00318811
1.31714
-0.00806067
1.31446
-0.00815396
1.31399
-0.00779464
1.31472
-0.0107081
1.31936
-0.0143745
1.32959
-0.0144054
1.33855
-0.0137757
1.34399
-0.0144994
1.34952
-0.0153624
1.35414
-0.0138161
1.35828
-0.00923236
1.36218
-0.000760533
1.36573
0.011716
1.36847
0.0236108
1.36816
0.0480325
0.0620917
0.00127609
-0.000503575
0.00405392
-0.00167436
0.0113289
-0.0039296
0.0277779
-0.00702975
0.0602859
-0.0110218
0.116615
-0.0139992
0.199333
-0.0164889
0.303296
-0.0154248
0.417295
-0.0125899
0.53021
-0.00918561
0.635301
-0.00800268
0.729984
-0.00642532
0.814143
-0.00574399
0.888331
-0.00303803
0.953527
-0.00363761
1.01036
0.00270953
1.05957
-0.00666228
1.10244
0.0133912
1.1392
-0.0119045
1.16823
0.0113456
1.19728
0.00680963
1.21927
0.000156981
1.23356
0.00332958
1.24794
0.00652073
1.26376
0.0077795
1.27537
0.0070159
1.27956
0.00474623
1.2797
0.00231052
1.28136
0.00368812
1.28687
0.00691535
1.29365
0.00950586
1.29717
0.00813019
1.2958
0.00493069
1.29155
0.00344822
1.28601
-0.00118409
1.28172
0.00026794
1.27958
-0.00242922
1.2838
0.00715244
1.28818
0.0121502
1.2906
0.00877623
1.29091
0.00364628
1.29065
0.00370992
1.28856
0.00268012
1.28179
-0.00313544
1.2769
-0.00831374
1.27396
-0.00823186
1.27329
-0.00816497
1.27398
-0.0115153
1.27769
-0.0150693
1.28718
-0.0147493
1.29572
-0.013762
1.30148
-0.0160458
1.30687
-0.0167271
1.31146
-0.0150817
1.31549
-0.0104665
1.31921
-0.00283592
1.32248
0.00939005
1.32508
0.02065
1.32531
0.0470278
0.059721
0.00123188
-0.000511139
0.00391123
-0.00169944
0.0109268
-0.0039894
0.0267827
-0.00714839
0.0581099
-0.01123
0.112383
-0.0142913
0.192073
-0.0168601
0.292228
-0.0158009
0.402076
-0.0129117
0.510928
-0.00938729
0.612294
-0.00812951
0.703648
-0.00647708
0.784913
-0.00581324
0.856648
-0.00304457
0.919627
-0.00368386
0.974484
0.00294191
1.02206
-0.00705865
1.0634
0.0142636
1.0988
-0.012719
1.12694
0.0120049
1.15529
0.00619929
1.17642
-9.61758e-005
1.19044
0.0032033
1.20471
0.00678268
1.22006
0.00814893
1.23098
0.00724938
1.23498
0.00421991
1.23553
0.00230259
1.23774
0.00365363
1.24335
0.00720491
1.2497
0.0100422
1.25267
0.0086866
1.25102
0.00513782
1.24707
0.0034831
1.24224
-0.00146991
1.23824
-0.000460481
1.23659
-0.00317984
1.24061
0.00815008
1.24464
0.01298
1.24667
0.00910885
1.24696
0.00357068
1.24655
0.0036218
1.2444
0.00265275
1.23848
-0.00413985
1.23325
-0.00847571
1.23036
-0.00861884
1.22963
-0.00864051
1.23
-0.012094
1.23328
-0.0158591
1.24142
-0.0139541
1.25005
-0.0140155
1.25674
-0.017543
1.26229
-0.0180128
1.26698
-0.0161881
1.27099
-0.0112544
1.2748
-0.00428343
1.27827
0.00714913
1.28093
0.0177326
1.28277
0.045086
0.0582057
0.00118939
-0.000517989
0.00377472
-0.00172239
0.010545
-0.0040451
0.025849
-0.00726334
0.0561006
-0.0114423
0.108551
-0.014615
0.185644
-0.0173113
0.282649
-0.0163216
0.389146
-0.0134237
0.494742
-0.00980837
0.593099
-0.00848451
0.681765
-0.00675964
0.760604
-0.00605257
0.830125
-0.00318503
0.891245
-0.00391087
0.944522
0.00309996
0.990723
-0.00762382
1.0309
0.0149514
1.06537
-0.0136353
1.09285
0.0125516
1.12011
0.00555047
1.14047
-0.00017958
1.15412
0.00321033
1.16812
0.00685991
1.18302
0.00832986
1.19351
0.00745398
1.1972
0.00388803
1.19762
0.00248698
1.19979
0.00369294
1.20537
0.00733776
1.21166
0.0103475
1.21459
0.00899001
1.21303
0.00511939
1.20891
0.00374867
1.20372
-0.00125312
1.19973
-9.38017e-005
1.19816
-0.00389699
1.20244
0.00886579
1.20666
0.0132616
1.20888
0.00927217
1.20917
0.00364244
1.20883
0.00384446
1.20672
0.00309084
1.20066
-0.00424693
1.19543
-0.00864105
1.19182
-0.00853087
1.19048
-0.00882971
1.1905
-0.0125191
1.19178
-0.0161411
1.19803
-0.0138847
1.20826
-0.0146181
1.21607
-0.0171617
1.22065
-0.0186348
1.22545
-0.0170417
1.22936
-0.0121936
1.23287
-0.00576261
1.2359
0.00533712
1.23825
0.0151893
1.2415
0.0420055
0.058134
0.00114837
-0.000524122
0.00364265
-0.0017429
0.0101734
-0.00409428
0.0249311
-0.00736359
0.0540966
-0.0116238
0.104657
-0.0148798
0.178967
-0.0176562
0.272467
-0.0166847
0.375133
-0.0137418
0.476967
-0.0100154
0.571867
-0.0086161
0.657435
-0.0068157
0.733579
-0.00612712
0.800812
-0.003207
0.859884
-0.00395664
0.91126
0.0032254
0.956162
-0.00776686
0.994546
0.0153995
1.02784
-0.0137469
1.05555
0.012797
1.07983
0.00670268
1.10032
-0.000239714
1.11577
0.00315997
1.12848
0.00707357
1.14066
0.0085657
1.1507
0.00759549
1.1566
0.00433727
1.15876
0.00223519
1.16027
0.00368001
1.16383
0.0075258
1.16876
0.0106848
1.17192
0.00943414
1.17121
0.00534099
1.16804
0.00365173
1.16403
-0.00105761
1.16049
-0.000976025
1.15876
-0.00474946
1.16186
0.00914071
1.16525
0.0142951
1.16704
0.00950315
1.16738
0.00355538
1.16722
0.00383495
1.16626
0.00335461
1.16214
-0.00402153
1.15689
-0.00935604
1.15273
-0.00876402
1.15062
-0.00908977
1.1499
-0.0128187
1.14989
-0.0161531
1.15271
-0.0149944
1.16019
-0.0149308
1.16808
-0.0164965
1.17199
-0.0186431
1.17649
-0.0176004
1.17994
-0.0131283
1.18305
-0.00701307
1.18613
0.00308683
1.18859
0.0127203
1.19255
0.0385988
0.0581773
0.00110889
-0.00052964
0.00351599
-0.00176153
0.00981902
-0.00413965
0.0240638
-0.00745955
0.052227
-0.0118055
0.101083
-0.0151645
0.172955
-0.0180568
0.263487
-0.017155
0.362989
-0.0142074
0.461747
-0.0103978
0.553804
-0.00893478
0.636833
-0.00706704
0.710687
-0.00634027
0.775827
-0.00334179
0.833156
-0.0041268
0.882938
0.00314248
0.926782
-0.00778774
0.963606
0.0151101
0.996036
-0.0132406
1.02477
0.0123778
1.0452
0.00703478
1.0655
6.91079e-005
1.08388
0.00326228
1.09532
0.0070091
1.10329
0.00850233
1.11252
0.00762557
1.12162
0.00468792
1.12703
0.00237412
1.12795
0.00392512
1.12716
0.00755333
1.128
0.0105663
1.13107
0.00935794
1.13419
0.00539555
1.13477
0.0037585
1.13246
-0.000308082
1.12926
-0.000368278
1.12586
-0.00492113
1.12465
0.00874457
1.12485
0.0133267
1.12686
0.0101833
1.12828
0.00356737
1.12886
0.00378065
1.12874
0.00387939
1.12802
-0.00333787
1.12636