/*--------------------------------*- C++ -*----------------------------------*\
| =========                 |                                                 |
| \\      /  F ield         | OpenFOAM: The Open Source CFD Toolbox           |
|  \\    /   O peration     | Version:  5.x                                   |
|   \\  /    A nd           | Web:      www.OpenFOAM.org                      |
|    \\/     M anipulation  |                                                 |
\*---------------------------------------------------------------------------*/
/*   Windows 32 and 64 bit porting by blueCAPE: http://www.bluecape.com.pt   *\
|  Based on Windows porting (2.0.x v4) by Symscape: http://www.symscape.com   |
\*---------------------------------------------------------------------------*/
FoamFile
{
    version     2.0;
    format      ascii;
    class       volScalarField;
    location    "0.009";
    object      T;
}
// * * * * * * * * * * * * * * * * * * * * * * * * * * * * * * * * * * * * * //

dimensions      [0 0 0 1 0 0 0];

internalField   nonuniform List<scalar> 
10000
(
348.413
348.356
348.198
347.802
346.938
345.287
342.572
338.742
334.038
328.849
323.536
318.279
313.172
308.215
303.481
298.764
294.782
289.592
287.077
282.21
278.064
275.893
273.065
268.946
265.43
263.576
262.536
260.91
258.294
255.478
253.566
252.988
253.048
253.445
253.6
253.167
251.66
250.6
250.197
250.129
250.293
251.204
252.571
253.392
253.712
253.735
253.327
251.711
249.796
248.398
247.398
246.779
246.316
245.988
245.601
245.284
245.082
245.585
246.664
258.012
348.413
348.356
348.2
347.808
346.954
345.32
342.63
338.831
334.155
328.987
323.687
318.437
313.331
308.373
303.628
298.92
294.872
289.752
287.178
282.143
278.199
276.053
272.908
268.641
265.361
263.742
262.554
260.499
257.567
254.815
253.196
252.82
252.929
253.238
253.154
252.027
250.271
249.467
249.235
249.232
249.582
250.826
252.03
252.609
252.748
252.62
251.675
249.936
248.602
247.705
247.119
246.781
246.47
246.262
245.977
245.734
245.603
246.441
248.543
263.686
348.413
348.356
348.2
347.809
346.955
345.323
342.635
338.837
334.164
329
323.706
318.464
313.368
308.424
303.682
299.06
294.767
290.408
286.482
282.926
278.799
275.438
272.895
269.824
266.319
263.508
261.866
260.68
258.931
256.486
254.159
252.887
252.68
252.855
253.158
253.136
252.397
251.135
250.482
250.28
250.282
250.507
251.501
252.681
253.444
253.785
253.829
253.648
252.782
251.602
250.649
250.008
249.433
249.063
248.627
248.304
248.003
248.587
250.065
263.592
348.414
348.357
348.202
347.814
346.968
345.351
342.686
338.916
334.269
329.125
323.844
318.608
313.515
308.572
303.812
299.252
294.678
291.015
285.84
283.369
279.338
274.857
272.318
270.324
267.073
263.324
260.706
259.562
258.815
257.341
254.989
252.675
251.44
251.262
251.386
251.834
251.965
251.806
250.931
250.083
249.76
249.703
249.813
250.374
251.373
252.113
252.52
252.639
252.615
252.383
251.697
251.06
250.495
250.134
249.665
249.358
249.113
250.319
253.414
271.771
348.414
348.357
348.202
347.815
346.971
345.356
342.693
338.925
334.281
329.141
323.864
318.636
313.551
308.62
303.872
299.33
294.775
291.123
286.004
283.501
279.534
275.108
272.535
270.551
267.395
263.721
261.092
259.903
259.172
257.787
255.562
253.289
252.023
251.801
251.901
252.331
252.571
252.469
251.745
250.926
250.58
250.522
250.608
251.084
252.113
252.899
253.307
253.419
253.397
253.153
252.403
251.685
251.042
250.621
250.147
249.869
249.582
250.775
253.797
272.079
348.414
348.357
348.204
347.82
346.982
345.381
342.738
338.995
334.375
329.254
323.99
318.769
313.687
308.755
304.007
299.444
294.923
291.155
286.147
283.618
279.401
275.143
272.767
270.524
267.023
263.406
261.128
260.129
259.144
257.252
254.706
252.563
251.653
251.615
251.862
252.281
252.249
251.63
250.447
249.777
249.552
249.555
249.863
250.864
251.868
252.501
252.758
252.784
252.602
251.898
251.04
250.424
249.908
249.566
249.156
248.927
248.65
249.704
252.495
270.794
348.414
348.357
348.204
347.821
346.985
345.386
342.747
339.007
334.39
329.272
324.012
318.797
313.723
308.801
304.063
299.52
295
291.282
286.269
283.731
279.643
275.348
272.885
270.75
267.416
263.803
261.401
260.319
259.432
257.754
255.347
253.165
252.13
252.024
252.204
252.64
252.721
252.342
251.299
250.598
250.33
250.307
250.51
251.347
252.413
253.104
253.402
253.433
253.276
252.57
251.558
250.804
250.18
249.763
249.328
249.044
248.717
249.298
250.916
266.161
348.414
348.358
348.205
347.825
346.995
345.408
342.787
339.07
334.475
329.375
324.128
318.919
313.849
308.927
304.189
299.633
295.126
291.343
286.375
283.835
279.581
275.378
273.039
270.728
267.165
263.589
261.398
260.412
259.335
257.334
254.75
252.651
251.797
251.78
252.053
252.458
252.375
251.585
250.363
249.72
249.512
249.528
249.904
251.003
252.028
252.647
252.871
252.861
252.525
251.558
250.591
249.887
249.311
248.942
248.541
248.283
247.959
248.514
250.134
265.426
348.414
348.358
348.206
347.826
346.999
345.414
342.797
339.084
334.492
329.394
324.151
318.947
313.884
308.97
304.241
299.701
295.2
291.455
286.492
283.938
279.793
275.564
273.152
270.933
267.509
263.938
261.648
260.6
259.608
257.772
255.291
253.161
252.223
252.156
252.378
252.794
252.796
252.198
251.074
250.415
250.165
250.154
250.424
251.427
252.513
253.19
253.457
253.463
253.158
252.117
250.93
250.052
249.345
248.904
248.454
248.153
247.796
248.183
249.295
262.929
348.414
348.358
348.207
347.829
347.007
345.433
342.832
339.139
334.569
329.489
324.256
319.06
314.001
309.088
304.359
299.811
295.309
291.538
286.562
284.047
279.775
275.578
273.259
270.937
267.354
263.775
261.593
260.605
259.512
257.494
254.891
252.767
251.886
251.856
252.129
252.549
252.472
251.669
250.392
249.721
249.504
249.515
249.881
251.011
252.092
252.751
252.991
252.98
252.585
251.445
250.32
249.495
248.841
248.455
248.02
247.746
247.396
247.819
249.025
262.997
348.414
348.358
348.208
347.831
347.011
345.441
342.844
339.155
334.587
329.509
324.28
319.088
314.034
309.129
304.406
299.876
295.371
291.657
286.649
284.147
279.989
275.73
273.327
271.134
267.707
264.102
261.775
260.72
259.75
257.929
255.43
253.24
252.237
252.153
252.361
252.803
252.805
252.23
251.063
250.353
250.071
250.051
250.301
251.288
252.422
253.13
253.417
253.432
253.103
251.969
250.688
249.743
248.974
248.533
248.063
247.771
247.407
247.752
248.692
261.757
348.414
348.358
348.208
347.834
347.018
345.457
342.875
339.204
334.656
329.595
324.377
319.193
314.143
309.239
304.518
299.979
295.474
291.736
286.717
284.249
279.988
275.746
273.426
271.151
267.588
263.964
261.717
260.715
259.675
257.718
255.112
252.906
251.93
251.862
252.113
252.567
252.54
251.846
250.51
249.767
249.51
249.501
249.804
250.881
252.029
252.746
253.035
253.046
252.688
251.498
250.211
249.267
248.498
248.063
247.606
247.321
246.962
247.307
248.23
261.362
348.414
348.359
348.209
347.836
347.022
345.465
342.887
339.221
334.675
329.615
324.401
319.219
314.174
309.278
304.561
300.04
295.528
291.85
286.794
284.331
280.202
275.881
273.458
271.324
267.936
264.281
261.861
260.772
259.863
258.123
255.632
253.353
252.233
252.107
252.288
252.753
252.783
252.326
251.153
250.344
250.004
249.959
250.156
251.052
252.24
253.012
253.351
253.395
253.128
252.031
250.572
249.482
248.579
248.066
247.574
247.254
246.841
247.022
247.375
258.366
348.414
348.359
348.21
347.838
347.029
345.48
342.915
339.265
334.738
329.694
324.49
319.317
314.276
309.381
304.666
300.138
295.63
291.918
286.869
284.431
280.194
275.907
273.572
271.349
267.822
264.152
261.826
260.798
259.818
257.94
255.343
253.053
251.965
251.851
252.072
252.56
252.59
252.035
250.672
249.832
249.526
249.494
249.723
250.69
251.903
252.695
253.043
253.084
252.799
251.664
250.211
249.125
248.242
247.741
247.273
246.962
246.54
246.672
246.813
256.808
348.414
348.359
348.21
347.84
347.033
345.487
342.927
339.282
334.757
329.715
324.514
319.342
314.306
309.416
304.706
300.191
295.682
292.019
286.944
284.502
280.381
276.034
273.605
271.496
268.12
264.438
261.972
260.86
259.976
258.273
255.779
253.444
252.25
252.093
252.258
252.73
252.781
252.386
251.209
250.32
249.938
249.877
250.045
250.875
252.09
252.897
253.262
253.315
253.086
252.032
250.477
249.295
248.33
247.771
247.27
246.929
246.485
246.543
246.33
254.19
348.414
348.359
348.211
347.842
347.039
345.501
342.952
339.322
334.814
329.787
324.596
319.433
314.401
309.514
304.806
300.284
295.781
292.078
287.024
284.602
280.361
276.069
273.739
271.526
267.999
264.312
261.968
260.932
259.96
258.095
255.495
253.167
252.029
251.89
252.1
252.599
252.648
252.13
250.748
249.855
249.531
249.492
249.692
250.601
251.837
252.655
253.022
253.069
252.801
251.661
250.117
248.957
248.02
247.487
246.999
246.668
246.232
246.267
245.93
252.942
348.414
348.359
348.212
347.844
347.043
345.508
342.965
339.339
334.834
329.808
324.619
319.457
314.429
309.546
304.843
300.332
295.831
292.167
287.096
284.668
280.524
276.183
273.774
271.655
268.253
264.562
262.108
261.002
260.103
258.37
255.849
253.497
252.291
252.127
252.294
252.763
252.821
252.398
251.17
250.254
249.865
249.799
249.97
250.802
252.026
252.826
253.183
253.232
252.991
251.88
250.258
249.027
248.036
247.453
246.935
246.594
246.132
246.123
245.641
251.228
348.414
348.36
348.212
347.846
347.048
345.52
342.987
339.375
334.886
329.875
324.696
319.542
314.518
309.638
304.938
300.42
295.925
292.221
287.175
284.766
280.506
276.224
273.913
271.688
268.142
264.453
262.121
261.087
260.1
258.214
255.6
253.257
252.104
251.953
252.16
252.665
252.709
252.184
250.767
249.855
249.526
249.478
249.666
250.554
251.811
252.64
253.012
253.057
252.782
251.587
249.962
248.746
247.778
247.21
246.716
246.377
245.914
245.892
245.365
250.509
348.414
348.36
348.213
347.848
347.052
345.528
343
339.393
334.906
329.895
324.718
319.565
314.544
309.668
304.971
300.464
295.972
292.301
287.242
284.826
280.65
276.326
273.943
271.803
268.366
264.674
262.246
261.152
260.227
258.45
255.899
253.54
252.335
252.172
252.341
252.805
252.869
252.406
251.117
250.188
249.797
249.727
249.904
250.753
251.984
252.781
253.132
253.177
252.922
251.748
250.06
248.801
247.798
247.206
246.688
246.36
245.893
245.845
245.259
249.739
348.414
348.36
348.214
347.849
347.057
345.538
343.02
339.425
334.953
329.956
324.789
319.644
314.628
309.754
305.061
300.547
296.062
292.351
287.322
284.92
280.633
276.375
274.088
271.837
268.261
264.58
262.28
261.252
260.237
258.31
255.676
253.332
252.183
252.033
252.242
252.748
252.778
252.219
250.754
249.841
249.52
249.466
249.649
250.547
251.824
252.656
253.023
253.064
252.773
251.521
249.854
248.623
247.646
247.073
246.568
246.25
245.788
245.736
245.113
249.331
348.414
348.36
348.214
347.851
347.06
345.546
343.032
339.442
334.973
329.976
324.81
319.666
314.652
309.782
305.091
300.586
296.107
292.421
287.384
284.975
280.756
276.466
274.116
271.938
268.454
264.772
262.393
261.317
260.35
258.507
255.921
253.57
252.389
252.234
252.409
252.864
252.921
252.398
251.037
250.114
249.737
249.667
249.856
250.739
251.986
252.782
253.132
253.18
252.929
251.754
250.048
248.756
247.71
247.055
246.481
246.127
245.632
245.558
244.859
248.426
348.414
348.36
348.215
347.853
347.065
345.555
343.05
339.472
335.016
330.033
324.876
319.74
314.731
309.863
305.176
300.665
296.195
292.464
287.472
285.064
280.733
276.53
274.271
271.965
268.347
264.698
262.453
261.433
260.366
258.377
255.72
253.392
252.27
252.13
252.345
252.846
252.865
252.249
250.727
249.82
249.514
249.462
249.635
250.519
251.844
252.728
253.134
253.207
252.995
251.913
250.151
248.771
247.612
246.861
246.211
245.823
245.224
245.094
244.287
246.943
348.414
348.36
348.215
347.854
347.068
345.563
343.062
339.488
335.035
330.052
324.896
319.76
314.753
309.888
305.204
300.697
296.245
292.506
287.558
285.111
280.804
276.642
274.342
272.032
268.458
264.857
262.612
261.559
260.478
258.494
255.856
253.563
252.471
252.355
252.551
252.991
253.025
252.404
250.942
250.021
249.66
249.591
249.76
250.574
251.926
252.874
253.357
253.505
253.429
252.78
251
249.361
247.996
247.079
246.328
245.896
245.246
245.066
244.269
246.078
348.414
348.36
348.216
347.856
347.072
345.571
343.079
339.516
335.074
330.104
324.957
319.829
314.827
309.965
305.289
300.75
296.422
292.268
288.214
284.538
280.988
277.261
274.14
271.577
268.598
265.432
262.843
261.184
259.982
258.375
256.13
253.891
252.543
252.247
252.35
252.728
252.757
252.255
250.864
249.987
249.688
249.621
249.693
250.134
251.352
252.508
253.211
253.521
253.566
253.44
252.624
251.031
249.569
248.602
247.816
247.436
246.732
246.485
245.549
246.949
348.414
348.361
348.216
347.857
347.076
345.578
343.09
339.532
335.093
330.123
324.977
319.849
314.848
309.987
305.319
300.748
296.594
291.934
289.019
283.77
281.111
278.171
273.852
270.682
268.893
266.576
263.449
260.592
258.832
257.943
257.014
255.47
253.636
252.2
251.602
251.576
251.711
251.939
251.894
251.338
250.692
250.429
250.407
250.388
250.509
251.158
252.087
252.722
253.02
253.094
253.037
252.636
251.641
250.894
250.243
249.897
249.241
249.01
248.168
249.353
348.414
348.361
348.217
347.859
347.079
345.586
343.105
339.557
335.129
330.171
325.034
319.913
314.917
310.06
305.396
300.819
296.679
291.958
289.121
283.871
280.958
278.395
274.061
270.479
268.686
266.796
263.765
260.575
258.472
257.586
256.986
255.802
253.952
252.202
251.279
251.177
251.241
251.59
251.755
251.629
251.076
250.607
250.431
250.364
250.381
250.675
251.488
252.186
252.565
252.696
252.697
252.579
252.042
251.529
251.029
250.737
250.135
249.921
249.122
250.57
348.414
348.361
348.217
347.86
347.082
345.593
343.116
339.572
335.147
330.19
325.053
319.931
314.937
310.08
305.419
300.844
296.72
291.993
289.177
283.93
280.978
278.475
274.163
270.495
268.674
266.952
264.007
260.69
258.422
257.5
257.017
256.082
254.354
252.517
251.354
251.062
251.101
251.437
251.787
251.815
251.527
250.946
250.662
250.521
250.52
250.706
251.327
251.967
252.35
252.507
252.531
252.503
252.216
251.826
251.367
251.084
250.5
250.303
249.51
251.085
348.414
348.361
348.218
347.861
347.086
345.6
343.13
339.595
335.181
330.234
325.105
319.992
315.002
310.15
305.491
300.916
296.789
292.049
289.241
284.01
280.992
278.548
274.282
270.519
268.632
266.967
264.093
260.75
258.396
257.418
256.952
256.078
254.339
252.45
251.281
251.001
251.014
251.333
251.638
251.659
251.393
250.846
250.568
250.454
250.448
250.62
251.218
251.855
252.249
252.426
252.463
252.456
252.249
251.928
251.492
251.224
250.668
250.476
249.657
251.326
348.414
348.361
348.218
347.863
347.089
345.607
343.141
339.609
335.198
330.252
325.123
320.009
315.02
310.167
305.511
300.939
296.822
292.09
289.282
284.046
281.057
278.589
274.314
270.575
268.702
267.061
264.202
260.829
258.433
257.431
256.995
256.222
254.579
252.667
251.361
250.961
250.967
251.261
251.692
251.792
251.631
251.071
250.705
250.531
250.512
250.62
251.089
251.73
252.165
252.388
252.454
252.466
252.343
252.079
251.616
251.336
250.771
250.59
249.762
251.468
348.414
348.361
348.218
347.864
347.092
345.613
343.154
339.631
335.229
330.293
325.173
320.065
315.081
310.234
305.58
301.009
296.883
292.155
289.336
284.112
281.116
278.645
274.378
270.636
268.745
267.066
264.197
260.852
258.474
257.474
257.015
256.182
254.47
252.537
251.303
250.966
250.97
251.277
251.633
251.697
251.514
250.936
250.568
250.414
250.392
250.51
251.015
251.692
252.159
252.406
252.484
252.501
252.381
252.129
251.659
251.376
250.816
250.645
249.802
251.535
348.414
348.361
348.219
347.865
347.095
345.619
343.163
339.644
335.245
330.309
325.189
320.081
315.097
310.249
305.597
301.029
296.911
292.193
289.369
284.138
281.187
278.674
274.378
270.694
268.842
267.145
264.24
260.883
258.529
257.55
257.099
256.278
254.584
252.649
251.352
250.969
250.98
251.289
251.72
251.818
251.65
251.044
250.631
250.441
250.417
250.513
250.966
251.653
252.148
252.42
252.513
252.535
252.425
252.174
251.679
251.385
250.819
250.652
249.814
251.55
348.414
348.361
348.219
347.866
347.098
345.626
343.175
339.664
335.274
330.348
325.235
320.134
315.155
310.312
305.663
301.096
296.97
292.256
289.423
284.204
281.245
278.73
274.446
270.757
268.887
267.16
264.246
260.913
258.576
257.6
257.127
256.25
254.492
252.539
251.311
250.991
251.004
251.33
251.683
251.743
251.548
250.915
250.508
250.335
250.31
250.421
250.928
251.656
252.171
252.448
252.538
252.558
252.425
252.126
251.612
251.314
250.739
250.576
249.733
251.466
348.414
348.361
348.22
347.867
347.1
345.631
343.185
339.677
335.29
330.364
325.251
320.149
315.17
310.326
305.678
301.114
296.993
292.294
289.447
284.22
281.326
278.741
274.425
270.818
268.994
267.22
264.248
260.917
258.634
257.697
257.221
256.315
254.544
252.596
251.342
250.999
251.023
251.363
251.774
251.85
251.645
250.97
250.527
250.326
250.301
250.408
250.908
251.646
252.168
252.446
252.535
252.553
252.419
252.094
251.584
251.292
250.737
250.579
249.742
251.383
348.414
348.362
348.22
347.868
347.103
345.637
343.196
339.695
335.317
330.399
325.294
320.199
315.224
310.386
305.74
301.179
297.049
292.357
289.498
284.283
281.395
278.79
274.481
270.895
269.063
267.235
264.231
260.94
258.71
257.795
257.281
256.274
254.418
252.469
251.313
251.066
251.107
251.472
251.786
251.805
251.514
250.798
250.398
250.23
250.216
250.372
250.988
251.731
252.226
252.472
252.539
252.544
252.37
252.023
251.545
251.273
250.736
250.588
249.769
251.313
348.414
348.362
348.22
347.869
347.106
345.642
343.204
339.707
335.331
330.414
325.309
320.212
315.238
310.398
305.753
301.194
297.068
292.391
289.516
284.296
281.468
278.793
274.456
270.95
269.159
267.282
264.217
260.931
258.764
257.893
257.365
256.309
254.427
252.492
251.342
251.081
251.135
251.524
251.866
251.88
251.547
250.8
250.388
250.208
250.203
250.391
251.052
251.765
252.222
252.433
252.484
252.476
252.278
251.937
251.476
251.213
250.693
250.546
249.739
251.217
348.414
348.362
348.221
347.87
347.108
345.648
343.215
339.725
335.356
330.448
325.349
320.259
315.289
310.455
305.813
301.256
297.124
292.452
289.568
284.359
281.535
278.844
274.515
271.029
269.23
267.302
264.209
260.961
258.851
258.002
257.43
256.27
254.307
252.384
251.336
251.171
251.247
251.651
251.895
251.844
251.36
250.632
250.283
250.158
250.172
250.445
251.193
251.865
252.269
252.435
252.463
252.418
252.12
251.776
251.331
251.074
250.554
250.409
249.605
251.006
348.414
348.362
348.221
347.871
347.111
345.652
343.223
339.736
335.369
330.461
325.363
320.271
315.302
310.465
305.824
301.269
297.14
292.479
289.583
284.37
281.591
278.845
274.493
271.069
269.305
267.339
264.196
260.948
258.891
258.081
257.493
256.284
254.306
252.4
251.363
251.179
251.264
251.688
251.946
251.883
251.353
250.624
250.27
250.131
250.16
250.484
251.249
251.887
252.265
252.413
252.428
252.356
251.984
251.582
251.076
250.797
250.244
250.081
249.263
250.587
348.415
348.362
348.221
347.872
347.113
345.658
343.233
339.752
335.393
330.493
325.401
320.316
315.35
310.52
305.881
301.328
297.194
292.538
289.636
284.434
281.655
278.901
274.559
271.145
269.37
267.367
264.207
260.991
258.977
258.177
257.55
256.261
254.225
252.332
251.375
251.261
251.368
251.792
251.983
251.852
251.202
250.505
250.201
250.109
250.149
250.518
251.322
251.967
252.342
252.48
252.484
252.368
251.886
251.424
250.883
250.596
250.038
249.875
249.034
250.256
348.415
348.362
348.222
347.873
347.115
345.662
343.24
339.762
335.406
330.506
325.413
320.327
315.361
310.528
305.89
301.339
297.208
292.561
289.646
284.441
281.703
278.895
274.536
271.18
269.431
267.389
264.189
260.98
259.007
258.231
257.588
256.267
254.231
252.349
251.388
251.247
251.356
251.8
252.016
251.89
251.235
250.517
250.182
250.057
250.099
250.477
251.307
251.977
252.368
252.514
252.515
252.384
251.875
251.415
250.862
250.574
250.024
249.854
249.007
250.123
348.415
348.362
348.222
347.874
347.117
345.667
343.25
339.778
335.428
330.535
325.449
320.369
315.407
310.58
305.945
301.395
297.262
292.616
289.702
284.506
281.756
278.959
274.613
271.247
269.482
267.427
264.234
261.043
259.077
258.291
257.633
256.285
254.218
252.33
251.401
251.297
251.423
251.863
252.046
251.888
251.184
250.464
250.142
250.045
250.084
250.456
251.312
252.008
252.415
252.568
252.568
252.431
251.908
251.449
250.889
250.599
250.051
249.879
249.031
250.072
348.415
348.362
348.222
347.875
347.119
345.671
343.256
339.787
335.439
330.547
325.461
320.379
315.417
310.587
305.952
301.403
297.272
292.634
289.709
284.512
281.793
278.95
274.592
271.27
269.524
267.442
264.221
261.031
259.087
258.316
257.651
256.293
254.231
252.344
251.398
251.266
251.385
251.844
252.056
251.913
251.226
250.481
250.128
249.997
250.037
250.414
251.283
251.993
252.411
252.571
252.571
252.433
251.915
251.475
250.934
250.646
250.109
249.932
249.088
250.071
348.415
348.362
348.222
347.876
347.122
345.676
343.265
339.802
335.46
330.575
325.495
320.418
315.461
310.637
306.004
301.458
297.324
292.69
289.762
284.574
281.855
279.009
274.664
271.346
269.585
267.482
264.262
261.095
259.166
258.389
257.705
256.316
254.224
252.335
251.421
251.322
251.46
251.913
252.093
251.916
251.177
250.437
250.1
249.999
250.04
250.426
251.313
252.03
252.448
252.605
252.602
252.455
251.931
251.503
250.984
250.688
250.154
249.973
249.131
250.084
348.415
348.362
348.223
347.876
347.123
345.679
343.271
339.81
335.471
330.586
325.505
320.428
315.469
310.642
306.01
301.464
297.331
292.707
289.761
284.576
281.894
278.988
274.633
271.373
269.628
267.48
264.224
261.07
259.185
258.428
257.721
256.29
254.193
252.319
251.417
251.307
251.445
251.914
252.105
251.917
251.159
250.416
250.069
249.947
249.997
250.421
251.327
252.037
252.446
252.594
252.585
252.419
251.883
251.47
250.974
250.668
250.134
249.949
249.111
250.066
348.415
348.362
348.223
347.877
347.125
345.684
343.28
339.824
335.491
330.612
325.537
320.465
315.511
310.69
306.06
301.517
297.381
292.765
289.811
284.637
281.967
279.037
274.696
271.463
269.707
267.515
264.246
261.132
259.291
258.538
257.788
256.293
254.158
252.306
251.464
251.394
251.559
252.021
252.169
251.913
251.071
250.358
250.045
249.959
250.021
250.497
251.418
252.109
252.497
252.63
252.613
252.427
251.861
251.434
250.916
250.585
250.032
249.837
249.001
249.98
348.415
348.363
348.223
347.878
347.127
345.687
343.285
339.832
335.5
330.622
325.546
320.473
315.518
310.694
306.064
301.521
297.386
292.778
289.807
284.636
282
279.01
274.659
271.488
269.746
267.499
264.189
261.099
259.318
258.586
257.792
256.234
254.089
252.271
251.462
251.394
251.565
252.035
252.172
251.872
250.989
250.301
250.001
249.907
249.99
250.535
251.464
252.136
252.504
252.624
252.601
252.393
251.77
251.283
250.703
250.335
249.747
249.539
248.696
249.726
348.415
348.363
348.224
347.879
347.129
345.692
343.294
339.845
335.519
330.647
325.577
320.508
315.558
310.74
306.113
301.573
297.436
292.832
289.861
284.697
282.061
279.074
274.731
271.565
269.817
267.547
264.232
261.169
259.419
258.687
257.857
256.251
254.08
252.285
251.524
251.482
251.681
252.137
252.237
251.863
250.93
250.272
250.002
249.937
250.028
250.604
251.549
252.226
252.596
252.716
252.692
252.46
251.738
251.142
250.497
250.105
249.49
249.27
248.397
249.447
348.415
348.363
348.224
347.879
347.13
345.694
343.299
339.852
335.528
330.656
325.585
320.516
315.564
310.743
306.115
301.574
297.439
292.837
289.86
284.694
282.072
279.057
274.702
271.568
269.831
267.536
264.195
261.138
259.415
258.693
257.841
256.209
254.038
252.256
251.501
251.454
251.65
252.112
252.213
251.821
250.882
250.231
249.96
249.879
249.974
250.57
251.551
252.259
252.649
252.775
252.75
252.494
251.711
251.083
250.433
250.048
249.426
249.202
248.312
249.376
348.415
348.363
348.224
347.88
347.132
345.699
343.306
339.865
335.546
330.679
325.614
320.549
315.602
310.786
306.162
301.623
297.491
292.886
289.92
284.756
282.12
279.133
274.788
271.63
269.884
267.601
264.276
261.222
259.486
258.752
257.903
256.275
254.097
252.307
251.554
251.515
251.721
252.178
252.271
251.866
250.915
250.262
249.994
249.926
250.014
250.595
251.602
252.335
252.74
252.874
252.85
252.588
251.771
251.119
250.459
250.079
249.448
249.218
248.317
249.384
348.415
348.363
348.224
347.881
347.134
345.701
343.311
339.871
335.554
330.687
325.622
320.556
315.607
310.788
306.164
301.624
297.494
292.889
289.915
284.753
282.133
279.108
274.76
271.635
269.893
267.587
264.245
261.193
259.471
258.745
257.894
256.265
254.087
252.293
251.526
251.477
251.676
252.153
252.266
251.892
250.956
250.284
249.998
249.908
249.993
250.567
251.58
252.325
252.74
252.882
252.863
252.612
251.801
251.154
250.499
250.132
249.491
249.257
248.345
249.416
348.415
348.363
348.224
347.881
347.136
345.706
343.319
339.884
335.572
330.712
325.652
320.591
315.648
310.835
306.215
301.68
297.547
292.959
289.968
284.83
282.213
279.182
274.851
271.727
269.977
267.676
264.348
261.294
259.556
258.824
257.995
256.388
254.202
252.378
251.588
251.537
251.736
252.225
252.353
252.016
251.083
250.359
250.041
249.946
250.008
250.508
251.506
252.27
252.715
252.881
252.877
252.674
251.924
251.255
250.583
250.212
249.552
249.311
248.379
249.421
348.415
348.363
348.225
347.883
347.139
345.712
343.329
339.899
335.59
330.731
325.67
320.607
315.659
310.841
306.215
301.686
297.54
292.973
289.949
284.814
282.216
279.142
274.779
271.68
269.956
267.653
264.288
261.186
259.426
258.71
257.913
256.339
254.156
252.278
251.404
251.313
251.482
251.989
252.162
251.885
250.994
250.218
249.853
249.696
249.749
250.211
251.233
252.07
252.589
252.805
252.835
252.689
252.107
251.314
250.74
250.225
249.675
249.337
248.604
248.207
348.415
348.363
348.225
347.881
347.135
345.703
343.313
339.874
335.557
330.693
325.63
320.569
315.624
310.811
306.191
301.646
297.52
292.912
289.943
284.796
282.123
279.19
274.855
271.621
269.858
267.658
264.396
261.274
259.411
258.645
257.905
256.423
254.264
252.366
251.485
251.398
251.573
252.075
252.244
252.003
251.18
250.401
250.033
249.925
249.959
250.353
251.361
252.26
252.833
253.084
253.143
253.042
252.516
251.61
250.947
250.325
249.741
249.336
248.614
248.251
348.415
348.363
348.225
347.883
347.138
345.711
343.328
339.898
335.59
330.732
325.672
320.61
315.662
310.846
306.219
301.688
297.554
292.95
289.981
284.821
282.16
279.191
274.831
271.632
269.891
267.681
264.38
261.224
259.359
258.61
257.891
256.43
254.268
252.329
251.377
251.258
251.419
251.939
252.142
251.935
251.136
250.304
249.891
249.715
249.743
250.096
251.081
252.033
252.661
252.95
253.031
252.958
252.506
251.576
250.881
250.206
249.631
249.219
248.493
248.131
348.415
348.363
348.225
347.882
347.136
345.704
343.314
339.875
335.556
330.691
325.628
320.565
315.62
310.804
306.188
301.638
297.52
292.904
289.942
284.794
282.109
279.198
274.861
271.603
269.839
267.667
264.422
261.278
259.375
258.599
257.888
256.452
254.307
252.383
251.463
251.358
251.524
252.029
252.218
252.016
251.249
250.429
250.022
249.879
249.906
250.27
251.263
252.206
252.829
253.122
253.208
253.135
252.667
251.687
250.939
250.274
249.651
249.235
248.49
248.118
348.415
348.363
348.225
347.883
347.138
345.71
343.327
339.897
335.589
330.733
325.674
320.612
315.666
310.85
306.224
301.69
297.565
292.937
290
284.831
282.128
279.212
274.863
271.616
269.862
267.691
264.42
261.248
259.345
258.582
257.886
256.464
254.305
252.351
251.381
251.254
251.418
251.947
252.149
251.95
251.174
250.335
249.919
249.747
249.767
250.1
251.075
252.059
252.719
253.037
253.137
253.082
252.664
251.69
250.918
250.216
249.584
249.171
248.404
248.013
348.415
348.363
348.225
347.882
347.137
345.706
343.316
339.876
335.556
330.689
325.625
320.561
315.616
310.798
306.184
301.628
297.52
292.897
289.942
284.794
282.092
279.208
274.869
271.582
269.82
267.677
264.445
261.279
259.344
258.559
257.872
256.475
254.339
252.396
251.444
251.328
251.485
251.989
252.19
252.015
251.292
250.454
250.022
249.858
249.881
250.223
251.2
252.161
252.816
253.134
253.234
253.184
252.764
251.775
250.976
250.223
249.619
249.192
248.415
248.029
348.415
348.363
348.225
347.883
347.138
345.71
343.326
339.895
335.587
330.732
325.675
320.615
315.669
310.856
306.229
301.695
297.577
292.926
290.015
284.842
282.099
279.23
274.895
271.603
269.835
267.701
264.461
261.273
259.332
258.552
257.878
256.498
254.348
252.378
251.383
251.245
251.411
251.946
252.149
251.968
251.223
250.374
249.944
249.77
249.788
250.103
251.056
252.047
252.731
253.072
253.185
253.151
252.779
251.821
250.983
250.214
249.627
249.192
248.388
247.972
348.415
348.363
348.226
347.883
347.138
345.707
343.318
339.877
335.557
330.688
325.623
320.558
315.612
310.791
306.18
301.617
297.519
292.885
289.946
284.796
282.064
279.225
274.89
271.551
269.782
267.692
264.491
261.293
259.297
258.491
257.843
256.518
254.405
252.431
251.422
251.283
251.42
251.919
252.145
252.017
251.38
250.52
250.057
249.869
249.88
250.187
251.118
252.091
252.767
253.102
253.213
253.182
252.81
251.852
250.961
250.24
249.631
249.192
248.372
247.931
348.415
348.363
348.226
347.883
347.139
345.71
343.325
339.893
335.585
330.731
325.675
320.617
315.672
310.861
306.235
301.701
297.591
292.916
290.029
284.854
282.07
279.249
274.931
271.586
269.801
267.716
264.512
261.301
259.307
258.508
257.863
256.541
254.411
252.418
251.384
251.228
251.39
251.926
252.138
251.978
251.274
250.418
249.974
249.801
249.817
250.117
251.043
252.03
252.715
253.065
253.185
253.157
252.805
251.86
250.947
250.23
249.606
249.135
248.302
247.838
348.415
348.364
348.226
347.884
347.139
345.708
343.319
339.878
335.557
330.687
325.62
320.554
315.608
310.784
306.174
301.605
297.516
292.873
289.949
284.798
282.039
279.236
274.909
271.526
269.748
267.702
264.529
261.303
259.259
258.435
257.816
256.554
254.46
252.46
251.399
251.236
251.364
251.861
252.11
252.013
251.447
250.58
250.088
249.884
249.89
250.183
251.084
252.053
252.723
253.057
253.169
253.132
252.77
251.816
250.915
250.202
249.566
249.086
248.276
247.842
348.415
348.364
348.226
347.884
347.139
345.71
343.324
339.891
335.582
330.728
325.675
320.619
315.675
310.865
306.241
301.706
297.603
292.909
290.038
284.865
282.049
279.264
274.958
271.571
269.777
267.73
264.553
261.319
259.286
258.475
257.854
256.578
254.461
252.45
251.389
251.223
251.379
251.91
252.126
251.972
251.287
250.439
249.996
249.831
249.851
250.166
251.094
252.049
252.704
253.038
253.144
253.102
252.707
251.74
250.84
250.146
249.506
249.028
248.223
247.771
348.415
348.364
348.226