/*--------------------------------*- C++ -*----------------------------------*\
| =========                 |                                                 |
| \\      /  F ield         | OpenFOAM: The Open Source CFD Toolbox           |
|  \\    /   O peration     | Version:  5.x                                   |
|   \\  /    A nd           | Web:      www.OpenFOAM.org                      |
|    \\/     M anipulation  |                                                 |
\*---------------------------------------------------------------------------*/
/*   Windows 32 and 64 bit porting by blueCAPE: http://www.bluecape.com.pt   *\
|  Based on Windows porting (2.0.x v4) by Symscape: http://www.symscape.com   |
\*---------------------------------------------------------------------------*/
FoamFile
{
    version     2.0;
    format      ascii;
    class       volVectorField;
    location    "0.009";
    object      U;
}
// * * * * * * * * * * * * * * * * * * * * * * * * * * * * * * * * * * * * * //

dimensions      [0 1 -1 0 0 0 0];

internalField   nonuniform List<vector> 
10000
(
(0.0511503 0.000112955 0)
(0.210977 0.000848694 4.34376e-021)
(0.630415 0.00375065 4.44398e-021)
(1.68592 0.0122747 -1.83123e-020)
(3.987 0.0327756 2.80743e-020)
(8.37695 0.0729109 -4.2652e-022)
(15.6046 0.142002 -1.9869e-020)
(25.8633 0.238318 0)
(38.6103 0.355538 0)
(52.8175 0.479608 0)
(67.58 0.608094 -4.01e-020)
(82.3223 0.72866 2.39329e-021)
(96.8181 0.851712 4.3403e-020)
(110.979 0.966284 0)
(124.771 1.0747 0)
(138.15 1.21168 0)
(151.111 1.30258 0)
(163.607 1.41065 -4.35856e-020)
(175.676 1.51142 9.10946e-020)
(187.216 1.64574 -4.70886e-020)
(198.257 1.75157 4.55259e-020)
(208.82 1.82149 -4.8517e-020)
(218.816 1.89493 0)
(228.172 1.98803 0)
(236.93 2.07378 0)
(245.126 2.13033 0)
(252.693 2.1637 0)
(259.514 2.20619 0)
(265.537 2.27803 -1.06225e-019)
(270.809 2.35576 1.10486e-019)
(275.404 2.39592 0)
(279.351 2.40403 0)
(282.669 2.41752 0)
(285.353 2.33832 0)
(287.345 2.26541 -1.23788e-019)
(288.744 2.18537 2.54929e-019)
(289.745 2.26797 -2.60373e-019)
(290.492 2.20353 1.33385e-019)
(291.039 2.20289 -1.36503e-019)
(291.407 2.1969 1.40455e-019)
(291.666 2.15158 -1.44256e-019)
(291.84 2.05383 1.4887e-019)
(291.954 1.97912 0)
(292.039 1.93595 0)
(292.15 1.89851 -1.63057e-019)
(292.324 1.82206 1.67595e-019)
(292.563 1.68933 0)
(292.919 1.66324 0)
(293.443 1.65777 0)
(294.135 1.58131 1.82769e-019)
(295.002 1.52804 -1.87261e-019)
(296.047 1.46757 0)
(297.273 1.39449 0)
(298.676 1.28214 2.01492e-019)
(300.228 1.21032 -2.07458e-019)
(301.924 1.17506 0)
(303.852 1.07783 0)
(305.661 1.07718 2.24361e-019)
(307.413 1.07819 -8.00532e-022)
(308.673 0.940016 -2.4969e-019)
(0.050826 -0.000260656 2.18836e-021)
(0.209168 -0.00129576 -2.2498e-021)
(0.623776 -0.00454149 0)
(1.66625 -0.0131379 0)
(3.93815 -0.0328124 0)
(8.27474 -0.0707186 0)
(15.4231 -0.134374 1.98868e-020)
(25.586 -0.221716 -2.10162e-020)
(38.2386 -0.32871 -2.03228e-020)
(52.3677 -0.443378 2.17163e-020)
(67.073 -0.56407 0)
(81.7757 -0.677586 -4.19814e-020)
(96.2453 -0.793834 4.49302e-020)
(110.39 -0.90129 -4.29672e-020)
(124.179 -1.00286 4.59263e-020)
(137.563 -1.13557 0)
(150.536 -1.20845 0)
(163.06 -1.33764 0)
(175.164 -1.40239 0)
(186.741 -1.54934 0)
(197.839 -1.65282 0)
(208.466 -1.71081 0)
(218.522 -1.77764 0)
(227.95 -1.86871 0)
(236.803 -1.95624 -5.03481e-020)
(245.109 -2.0175 5.32535e-020)
(252.781 -2.04994 -5.2741e-020)
(259.705 -2.08599 5.53823e-020)
(265.838 -2.14921 0)
(271.239 -2.22298 0)
(275.98 -2.27454 0)
(280.084 -2.29573 0)
(283.545 -2.29726 1.20706e-019)
(286.361 -2.2499 -1.25605e-019)
(288.483 -2.18004 0)
(290.011 -2.09659 0)
(291.116 -2.12003 0)
(291.961 -2.11298 1.36997e-019)
(292.624 -2.12223 -1.40999e-019)
(293.093 -2.09844 0)
(293.44 -2.03219 -1.48831e-019)
(293.698 -2.01786 3.07578e-019)
(293.895 -1.89881 -1.58772e-019)
(294.033 -1.8675 0)
(294.155 -1.86067 -1.68077e-019)
(294.297 -1.8561 3.4528e-019)
(294.48 -1.80423 -3.5344e-019)
(294.731 -1.67413 1.80385e-019)
(295.058 -1.67888 0)
(295.493 -1.70527 0)
(296.053 -1.65129 0)
(296.724 -1.57872 0)
(297.513 -1.47684 0)
(298.439 -1.4183 0)
(299.484 -1.35415 -2.14171e-019)
(300.603 -1.23713 2.20746e-019)
(301.988 -1.04516 -2.25689e-019)
(303.305 -1.012 2.33795e-019)
(304.581 -0.821567 0)
(305.38 -0.753452 0)
(0.0508264 -9.04108e-005 2.26432e-021)
(0.209146 7.76949e-005 2.32288e-021)
(0.623724 0.0017344 -4.7847e-021)
(1.66627 0.00806361 0)
(3.93877 0.0250519 9.97815e-021)
(8.27714 0.0603235 -1.03758e-020)
(15.4295 0.121109 0)
(25.5985 0.207017 0)
(38.2579 0.312534 0)
(52.3909 0.424969 0)
(67.0951 0.541638 0)
(81.7899 0.651749 0)
(96.2443 0.764344 -4.39425e-020)
(110.368 0.869608 4.70033e-020)
(124.124 0.970017 0)
(137.475 1.0953 -4.55794e-020)
(150.399 1.19311 2.45452e-021)
(162.893 1.2592 9.60145e-020)
(174.905 1.40037 -4.98502e-020)
(186.453 1.50026 0)
(197.505 1.58951 0)
(208.023 1.66947 0)
(218.01 1.73982 5.06173e-020)
(227.415 1.82445 -5.35217e-020)
(236.206 1.90126 0)
(244.393 1.94906 0)
(251.956 1.98353 0)
(258.822 2.03367 0)
(264.932 2.10897 0)
(270.294 2.18211 0)
(274.953 2.21562 0)
(278.946 2.22355 0)
(282.317 2.22229 0)
(285.076 2.1427 0)
(287.164 2.01531 1.32284e-019)
(288.649 2.08774 -1.36865e-019)
(289.716 2.14999 1.39496e-019)
(290.518 2.06264 -1.43127e-019)
(291.113 2.05147 1.4631e-019)
(291.531 2.06829 -1.50474e-019)
(291.819 2.02181 0)
(292.021 1.87011 -1.58867e-019)
(292.149 1.8191 3.27837e-019)
(292.212 1.81566 -4.41653e-023)
(292.279 1.70936 -1.74426e-019)
(292.373 1.6009 -1.79423e-019)
(292.486 1.56829 1.8446e-019)
(292.624 1.52812 1.89334e-019)
(292.838 1.44413 -1.93955e-019)
(293.168 1.33024 0)
(293.595 1.22554 2.0289e-019)
(294.106 1.09196 -2.08187e-019)
(294.701 1.05336 0)
(295.391 1.04265 -2.18494e-019)
(296.19 1.00401 2.24809e-019)
(297.067 0.970586 0)
(298.137 1.05868 2.3594e-019)
(299.137 0.948979 -2.43894e-019)
(300.145 1.1167 0)
(300.64 0.978756 0)
(0.0505666 -0.000377205 2.34282e-021)
(0.207679 -0.00159932 2.40345e-021)
(0.618258 -0.00495364 4.9235e-021)
(1.64984 -0.0130387 -1.01753e-020)
(3.89735 -0.0308284 0)
(8.18937 -0.0647431 0)
(15.2716 -0.121962 0)
(25.3548 -0.200957 0)
(37.9282 -0.295412 0)
(51.989 -0.397034 2.19978e-020)
(66.6391 -0.506056 -1.30487e-021)
(81.296 -0.608842 -2.38046e-020)
(95.7248 -0.714705 0)
(109.832 -0.811417 -4.60332e-020)
(123.585 -0.902972 4.91937e-020)
(136.94 -1.02741 0)
(149.866 -1.09082 0)
(162.404 -1.20768 0)
(174.419 -1.27561 -4.9019e-020)
(186.029 -1.40379 5.23738e-020)
(197.137 -1.49832 0)
(207.667 -1.55462 5.12796e-020)
(217.709 -1.60953 -5.44524e-020)
(227.232 -1.69228 0)
(236.126 -1.77898 0)
(244.36 -1.84103 0)
(251.966 -1.87194 -5.60628e-020)
(258.938 -1.8973 1.64322e-021)
(265.213 -1.94064 6.04445e-020)
(270.745 -2.00994 0)
(275.535 -2.07443 0)
(279.619 -2.10989 -6.27148e-020)
(283.045 -2.10864 6.50713e-020)
(285.869 -2.076 0)
(288.085 -2.01148 0)
(289.739 -1.94152 0)
(290.934 -1.86127 0)
(291.857 -1.95301 0)
(292.584 -1.97743 0)
(293.076 -1.92496 0)
(293.412 -1.87247 0)
(293.666 -1.85678 0)
(293.87 -1.82555 1.68434e-019)
(293.981 -1.72652 -1.73528e-019)
(294.05 -1.73178 0)
(294.135 -1.74101 0)
(294.224 -1.68624 0)
(294.31 -1.62433 -1.95103e-019)
(294.398 -1.52318 2.0057e-019)
(294.529 -1.48406 0)
(294.712 -1.45026 0)
(294.945 -1.44839 0)
(295.232 -1.36063 0)
(295.569 -1.24858 0)
(295.97 -1.10598 0)
(296.415 -0.966808 2.38829e-019)
(297.094 -0.863191 -2.46194e-019)
(297.749 -0.753904 -2.53301e-019)
(298.405 -0.388096 2.64231e-019)
(298.554 -0.257333 -2.90719e-019)
(0.0505192 -0.000271996 0)
(0.207438 -0.0006179 4.97868e-021)
(0.617539 -0.000164426 -1.39821e-023)
(1.64816 0.00397871 -1.57262e-020)
(3.89429 0.0172438 1.08171e-020)
(8.18493 0.0473763 0)
(15.2673 0.1011 -2.20353e-020)
(25.3529 0.180024 2.32814e-020)
(37.9304 0.27507 0)
(51.9937 0.376383 0)
(66.6429 0.481823 0)
(81.2929 0.581935 -2.32668e-020)
(95.7085 0.684564 4.84347e-020)
(109.797 0.780923 -2.51724e-020)
(123.518 0.872029 -4.82195e-020)
(136.844 0.990412 5.14996e-020)
(149.735 1.07512 0)
(162.224 1.15401 0)
(174.185 1.26718 5.07455e-020)
(185.738 1.37597 -5.42118e-020)
(196.801 1.45187 0)
(207.278 1.51708 0)
(217.248 1.58242 0)
(226.699 1.667 5.52643e-020)
(235.533 1.74225 -5.82734e-020)
(243.712 1.79031 -5.7021e-020)
(251.252 1.82143 5.99241e-020)
(258.142 1.85879 0)
(264.339 1.91945 -6.1068e-020)
(269.809 1.99563 6.39029e-020)
(274.548 2.03924 0)
(278.579 2.05867 0)
(281.966 2.04699 0)
(284.757 1.95558 -6.84394e-020)
(286.909 1.87539 7.1044e-020)
(288.484 1.88966 0)
(289.626 1.97946 0)
(290.486 1.86779 0)
(291.147 1.95101 0)
(291.606 1.90847 1.61261e-019)
(291.901 1.86145 -3.31203e-019)
(292.096 1.74799 1.70158e-019)
(292.227 1.70769 1.74807e-019)
(292.273 1.64621 -1.80051e-019)
(292.295 1.5574 0)
(292.347 1.48351 0)
(292.403 1.44014 0)
(292.457 1.41235 0)
(292.544 1.28749 2.08028e-019)
(292.702 1.14907 -2.13684e-019)
(292.925 1.07361 0)
(293.209 0.997384 2.24046e-019)
(293.55 0.939208 -2.2999e-019)
(293.943 0.940679 -2.35379e-019)
(294.409 0.930321 7.91473e-022)
(294.89 1.01533 2.48568e-019)
(295.561 1.17018 -2.54292e-019)
(296.228 1.17671 2.63279e-019)
(296.924 1.42636 2.72419e-019)
(297.067 1.50407 -6.03299e-019)
(0.0503061 -0.000480216 0)
(0.206229 -0.00186037 0)
(0.612997 -0.00530333 0)
(1.63436 -0.0128496 0)
(3.85906 -0.0287996 0)
(8.10939 -0.0587587 0)
(15.1299 -0.109629 2.28037e-020)
(25.1383 -0.180435 -2.40883e-020)
(37.637 -0.266482 0)
(51.6336 -0.356165 0)
(66.2319 -0.45417 -2.38153e-020)
(80.8458 -0.546519 2.54914e-020)
(95.2363 -0.642592 0)
(109.307 -0.728559 0)
(123.029 -0.812349 0)
(136.353 -0.924707 0)
(149.249 -0.987781 0)
(161.76 -1.08428 0)
(173.759 -1.16694 0)
(185.345 -1.26937 0)
(196.429 -1.35102 0)
(206.956 -1.40394 -5.49486e-020)
(217.002 -1.45321 5.83819e-020)
(226.516 -1.53084 0)
(235.399 -1.61041 0)
(243.646 -1.66598 0)
(251.291 -1.69504 6.0104e-020)
(258.307 -1.71644 -6.33843e-020)
(264.614 -1.75581 0)
(270.166 -1.817 0)
(274.985 -1.88247 0)
(279.119 -1.91472 0)
(282.608 -1.91806 0)
(285.509 -1.88496 0)
(287.812 -1.8025 0)
(289.536 -1.77088 0)
(290.748 -1.68914 0)
(291.682 -1.8411 0)
(292.427 -1.80264 0)
(292.927 -1.77536 0)
(293.274 -1.73244 0)
(293.544 -1.71494 0)
(293.765 -1.66322 -1.80323e-019)
(293.878 -1.60549 1.86114e-019)
(293.937 -1.60515 0)
(294.013 -1.59671 0)
(294.091 -1.56144 0)
(294.143 -1.48676 0)
(294.184 -1.4257 0)
(294.281 -1.40226 2.19805e-019)
(294.43 -1.33991 -2.25298e-019)
(294.624 -1.26927 0)
(294.877 -1.18571 0)
(295.171 -1.04454 0)
(295.534 -0.881463 0)
(295.925 -0.666701 0)
(296.496 -0.298562 0)
(297.08 -0.175976 0)
(297.732 0.190092 0)
(297.842 0.373889 0)
(0.0502284 -0.000425268 0)
(0.205845 -0.00120528 0)
(0.611818 -0.00180714 0)
(1.63145 0.000364114 0)
(3.85324 0.0100756 0)
(8.09969 0.0352205 0)
(15.1171 0.0819213 0)
(25.1249 0.153763 0)
(37.6259 0.242077 0)
(51.6237 0.333231 0)
(66.2211 0.42816 0)
(80.829 0.518596 0)
(95.2081 0.611859 0)
(109.263 0.699422 0)
(122.953 0.78273 0)
(136.252 0.893501 0)
(149.119 0.965917 0)
(161.584 1.05277 0)
(173.529 1.1435 0)
(185.067 1.26352 0)
(196.117 1.31968 0)
(206.593 1.37432 0)
(216.567 1.43815 0)
(226.016 1.52203 0)
(234.853 1.59353 0)
(243.054 1.63748 0)
(250.632 1.66382 0)
(257.566 1.69322 0)
(263.8 1.74567 0)
(269.303 1.81787 0)
(274.085 1.86845 0)
(278.179 1.88836 0)
(281.64 1.87856 0)
(284.513 1.79472 0)
(286.741 1.70614 -7.54871e-020)
(288.384 1.72172 7.82685e-020)
(289.554 1.79314 0)
(290.431 1.73852 0)
(291.131 1.81628 0)
(291.613 1.78258 0)
(291.922 1.72414 8.84904e-020)
(292.128 1.64214 -9.09886e-020)
(292.277 1.57885 0)
(292.332 1.51239 0)
(292.35 1.42212 0)
(292.404 1.35753 0)
(292.472 1.33115 -1.05454e-019)
(292.541 1.29527 1.08421e-019)
(292.633 1.18004 0)
(292.81 1.08562 0)
(293.074 1.00582 0)
(293.411 0.960685 0)
(293.828 0.922794 0)
(294.31 0.898396 0)
(294.876 0.991154 0)
(295.462 1.11314 0)
(296.19 1.41664 0)
(296.937 1.40754 0)
(297.8 1.61968 0)
(298.108 1.4981 0)
(0.0500485 -0.000573189 -2.68401e-021)
(0.204827 -0.0020996 8.27221e-021)
(0.607994 -0.00564407 -5.67148e-021)
(1.61976 -0.0127189 0)
(3.82311 -0.0270302 0)
(8.03446 -0.0532528 0)
(14.9972 -0.098091 0)
(24.9356 -0.160959 -2.46963e-020)
(37.3641 -0.238742 2.62618e-020)
(51.3001 -0.320166 2.52255e-020)
(65.8497 -0.407901 -2.69878e-020)
(80.4232 -0.490128 -2.579e-020)
(94.7778 -0.576851 2.7592e-020)
(108.815 -0.652301 0)
(122.507 -0.728706 2.67275e-020)
(135.801 -0.823454 -2.85378e-020)
(148.67 -0.88944 0)
(161.158 -0.967205 0)
(173.138 -1.06449 -5.62674e-020)
(184.703 -1.1463 2.74254e-021)
(195.768 -1.21276 6.07724e-020)
(206.289 -1.26495 0)
(216.332 -1.30884 0)
(225.842 -1.37602 6.12318e-020)
(234.724 -1.44811 -6.44723e-020)
(242.981 -1.50013 0)
(250.65 -1.52797 0)
(257.698 -1.54794 0)
(264.038 -1.58301 0)
(269.621 -1.63344 0)
(274.476 -1.69489 0)
(278.657 -1.72877 0)
(282.195 -1.73489 -7.36698e-020)
(285.156 -1.70558 7.6602e-020)
(287.533 -1.63606 -7.80494e-020)
(289.323 -1.60771 1.61264e-019)
(290.563 -1.55197 -8.30856e-020)
(291.512 -1.69342 0)
(292.275 -1.64214 -8.66553e-020)
(292.783 -1.63136 1.7784e-019)
(293.142 -1.60326 -9.13473e-020)
(293.422 -1.576 0)
(293.656 -1.50887 9.65051e-020)
(293.778 -1.51043 -1.99274e-019)
(293.84 -1.51245 1.028e-019)
(293.928 -1.48829 -1.05866e-019)
(294.027 -1.43167 1.08905e-019)
(294.098 -1.36344 0)
(294.166 -1.33877 0)
(294.308 -1.28808 0)
(294.521 -1.24797 -1.20217e-019)
(294.794 -1.13585 1.23328e-019)
(295.137 -1.06882 -1.26219e-019)
(295.55 -0.917828 1.29773e-019)
(296.049 -0.690166 0)
(296.583 -0.475545 0)
(297.24 -0.026275 0)
(297.916 0.141267 0)
(298.742 0.497305 0)
(299.058 0.455415 0)
(0.0499533 -0.000552215 -2.77656e-021)
(0.204356 -0.00168931 -2.8485e-021)
(0.60652 -0.00317959 5.86704e-021)
(1.61601 -0.00271853 0)
(3.81532 0.00376 0)
(8.02085 0.0242341 0)
(14.9779 0.0641791 0)
(24.9131 0.128953 -1.27745e-020)
(37.3424 0.210519 3.94051e-020)
(51.2789 0.29498 -1.47972e-021)
(65.8277 0.380115 -1.53785e-021)
(80.3958 0.461211 -5.49181e-020)
(94.7408 0.545549 1.55474e-021)
(108.765 0.624411 1.54632e-021)
(122.426 0.699373 2.91876e-020)
(135.699 0.800187 -2.80102e-020)
(148.543 0.861138 2.98658e-020)
(160.985 0.963513 -2.88008e-020)
(172.915 1.02774 3.05603e-020)
(184.439 1.16172 0)
(195.478 1.19894 0)
(205.952 1.2445 0)
(215.927 1.30625 0)
(225.376 1.38891 -6.33916e-020)
(234.218 1.45445 6.67793e-020)
(242.437 1.4936 0)
(250.047 1.51345 0)
(257.017 1.53569 0)
(263.286 1.58342 7.00552e-020)
(268.825 1.6516 -1.44793e-019)
(273.652 1.70655 1.42891e-021)
(277.803 1.72497 7.56863e-020)
(281.33 1.7159 0)
(284.273 1.64796 0)
(286.567 1.55351 8.08359e-020)
(288.275 1.56074 -8.38174e-020)
(289.476 1.61463 -8.56541e-020)
(290.376 1.63637 8.81281e-020)
(291.112 1.6919 0)
(291.617 1.6564 9.21564e-020)
(291.941 1.57882 -9.4745e-020)
(292.158 1.50157 0)
(292.315 1.43876 0)
(292.374 1.37704 1.03222e-019)
(292.395 1.29843 -1.0655e-019)
(292.45 1.2444 0)
(292.524 1.21949 0)
(292.594 1.17444 0)
(292.685 1.07739 1.19047e-019)
(292.864 0.991361 -1.2186e-019)
(293.145 0.939768 0)
(293.504 0.929643 0)
(293.953 0.854682 -1.30587e-019)
(294.489 0.868972 1.34225e-019)
(295.105 0.980553 0)
(295.766 1.08016 -1.40838e-019)
(296.538 1.38874 5.43142e-022)
(297.325 1.50239 2.98065e-019)
(298.297 1.76639 -1.53975e-019)
(298.762 1.58997 1.66641e-019)
(0.0497969 -0.000656868 0)
(0.20348 -0.00232207 0)
(0.60325 -0.0059858 0)
(1.606 -0.0126956 0)
(3.78937 -0.0256242 -1.26625e-020)
(7.96426 -0.0484356 1.31615e-020)
(14.8729 -0.0876717 0)
(24.7458 -0.142924 0)
(37.1086 -0.212617 0)
(50.9874 -0.286965 0)
(65.491 -0.366679 0)
(80.0266 -0.439105 0)
(94.3476 -0.516887 0)
(108.354 -0.582147 0)
(122.017 -0.651335 0)
(135.284 -0.733783 0)
(148.128 -0.79838 0)
(160.593 -0.864105 0)
(172.555 -0.968593 0)
(184.101 -1.03051 0)
(195.147 -1.08843 0)
(205.661 -1.13963 0)
(215.701 -1.17701 0)
(225.209 -1.2351 0)
(234.091 -1.29725 0)
(242.356 -1.34333 0)
(250.044 -1.37036 0)
(257.119 -1.39206 0)
(263.493 -1.42009 0)
(269.11 -1.46015 0)
(273.999 -1.51571 0)
(278.22 -1.55281 0)
(281.802 -1.56864 0)
(284.814 -1.5468 8.10851e-020)
(287.257 -1.4986 -1.67826e-019)
(289.111 -1.4433 8.6622e-020)
(290.387 -1.41348 8.85002e-020)
(291.353 -1.5204 -9.09652e-020)
(292.127 -1.48445 0)
(292.645 -1.47606 0)
(293.015 -1.45356 0)
(293.302 -1.42246 0)
(293.543 -1.38257 0)
(293.666 -1.36725 0)
(293.72 -1.38692 0)
(293.798 -1.38172 0)
(293.888 -1.32904 1.16553e-019)
(293.946 -1.2657 -1.19814e-019)
(293.997 -1.23607 1.22872e-019)
(294.127 -1.1999 -1.2572e-019)
(294.337 -1.1367 0)
(294.6 -1.04287 0)
(294.943 -0.97075 0)
(295.38 -0.832654 0)
(295.9 -0.605896 0)
(296.472 -0.368268 -1.45454e-019)
(297.146 0.0694702 1.49836e-019)
(297.823 0.380053 0)
(298.697 0.773556 0)
(299.121 0.726803 0)
(0.049693 -0.000656639 0)
(0.202963 -0.0020836 0)
(0.601605 -0.00430265 0)
(1.60173 -0.00529711 0)
(3.78025 -0.00166706 1.30987e-020)
(7.94786 0.0145239 -1.36145e-020)
(14.8488 0.0481123 0)
(24.7164 0.10594 0)
(37.0784 0.180741 1.38202e-020)
(50.9574 0.259535 -1.47575e-020)
(65.4605 0.337131 -2.82439e-020)
(79.9914 0.409205 5.87904e-020)
(94.3043 0.485024 -3.05586e-020)
(108.299 0.555516 0)
(121.932 0.622678 0)
(135.182 0.719362 0)
(148.003 0.767713 -3.0376e-020)
(160.426 0.884796 6.32595e-020)
(172.339 0.923791 -3.27172e-020)
(183.852 1.0662 0)
(194.881 1.08639 0)
(205.349 1.12449 0)
(215.323 1.18471 0)
(224.776 1.26382 0)
(233.627 1.32845 0)
(241.86 1.36345 0)
(249.491 1.37316 0)
(256.491 1.38956 -7.3148e-020)
(262.798 1.43159 7.69448e-020)
(268.379 1.49524 0)
(273.25 1.55208 0)
(277.452 1.56996 0)
(281.032 1.56216 0)
(284.03 1.52012 0)
(286.386 1.41166 0)
(288.157 1.40203 0)
(289.396 1.43532 0)
(290.327 1.50834 0)
(291.099 1.5544 -9.61857e-020)
(291.629 1.52343 9.87642e-020)
(291.972 1.44882 0)
(292.2 1.39714 0)
(292.368 1.3233 1.06994e-019)
(292.434 1.26193 -1.10434e-019)
(292.455 1.17805 0)
(292.51 1.1257 1.17412e-019)
(292.588 1.09424 -1.20805e-019)
(292.653 1.0452 0)
(292.727 1.00198 0)
(292.89 0.927408 0)
(293.161 0.861757 0)
(293.505 0.831671 -1.36249e-019)
(293.941 0.785413 1.39778e-019)
(294.476 0.769321 1.43076e-019)
(295.089 0.847709 -4.08845e-022)
(295.756 0.996655 -1.51002e-019)
(296.522 1.30485 1.5444e-019)
(297.276 1.54095 -1.59404e-019)
(298.239 1.83612 1.63728e-019)
(298.764 1.70764 -3.55467e-019)
(0.0495537 -0.000731307 0)
(0.202195 -0.0025275 3.15616e-021)
(0.598765 -0.00632406 -3.24692e-021)
(1.59306 -0.0127855 0)
(3.75773 -0.0245926 0)
(7.89849 -0.0443763 0)
(14.7566 -0.0785007 0)
(24.5681 -0.126523 0)
(36.8692 -0.188335 1.42999e-020)
(50.6943 -0.255687 -1.52672e-020)
(65.1545 -0.32803 0)
(79.6545 -0.392976 0)
(93.9439 -0.462305 2.99042e-020)
(107.92 -0.517609 -3.19699e-020)
(121.557 -0.580431 -3.06395e-020)
(134.798 -0.650491 1.67464e-021)
(147.62 -0.715851 3.30834e-020)
(160.064 -0.76813 0)
(172.007 -0.885119 3.22536e-020)
(183.536 -0.920362 -3.44521e-020)
(194.566 -0.974067 0)
(205.072 -1.02522 3.37439e-020)
(215.108 -1.05595 -7.02732e-020)
(224.616 -1.10553 3.64995e-020)
(233.499 -1.16036 -3.56452e-020)
(241.769 -1.2045 3.74276e-020)
(249.469 -1.22694 -7.38097e-020)
(256.57 -1.24876 2.20272e-021)
(262.976 -1.26962 7.95734e-020)
(268.628 -1.29727 0)
(273.552 -1.34442 0)
(277.807 -1.38516 0)
(281.428 -1.40729 -8.43724e-020)
(284.484 -1.39691 8.77607e-020)
(286.982 -1.37306 0)
(288.899 -1.30715 -9.20308e-020)
(290.219 -1.28465 9.52086e-020)
(291.204 -1.34502 -9.70609e-020)
(291.988 -1.33482 2.83192e-022)
(292.519 -1.32403 1.94312e-022)
(292.904 -1.31428 1.29441e-022)
(293.2 -1.30399 6.84279e-023)
(293.451 -1.27749 1.10505e-019)
(293.584 -1.21708 -1.13999e-019)
(293.639 -1.25429 1.17712e-019)
(293.718 -1.25921 0)
(293.812 -1.23351 0)
(293.875 -1.19944 0)
(293.926 -1.13017 0)
(294.049 -1.09007 0)
(294.264 -1.03484 0)
(294.533 -0.971011 -1.4067e-019)
(294.881 -0.88306 2.88371e-019)
(295.338 -0.804813 -3.1647e-022)
(295.89 -0.586153 -1.5188e-019)
(296.498 -0.284917 0)
(297.193 0.165242 0)
(297.856 0.531151 0)
(298.722 0.928251 0)
(299.206 0.91397 -1.83335e-019)
(0.0494467 -0.000742408 0)
(0.20166 -0.00240328 -3.26459e-021)
(0.59704 -0.00521155 1.00576e-020)
(1.5885 -0.00742704 -6.90286e-021)
(3.74779 -0.00625101 0)
(7.88025 0.00607936 1.42629e-020)
(14.729 0.0337823 -2.93994e-020)
(24.5334 0.0848662 1.52705e-020)
(36.8326 0.152911 1.47919e-020)
(50.6575 0.226053 -1.57926e-020)
(65.1178 0.296826 -1.5116e-020)
(79.6137 0.36212 4.67514e-020)
(93.8965 0.429845 -6.36419e-020)
(107.863 0.492131 3.30722e-020)
(121.471 0.552317 0)
(134.698 0.640836 0)
(147.498 0.681236 0)
(159.902 0.815216 -3.30206e-020)
(171.799 0.829668 3.50206e-020)
(183.304 0.975821 -3.40217e-020)
(194.323 0.983709 3.60661e-020)
(204.784 1.01248 3.4919e-020)
(214.756 1.07091 -3.70934e-020)
(224.213 1.14885 0)
(233.075 1.21107 0)
(241.32 1.24438 0)
(248.966 1.24564 0)
(255.993 1.25399 0)
(262.337 1.28937 0)
(267.959 1.34828 -8.20511e-020)
(272.874 1.40539 8.52903e-020)
(277.119 1.42273 -8.52768e-020)
(280.745 1.41443 8.86053e-020)
(283.791 1.39469 0)
(286.205 1.28871 9.24992e-020)
(288.037 1.27247 -9.59554e-020)
(289.318 1.26642 9.80494e-020)
(290.28 1.37186 -1.0095e-019)
(291.086 1.4148 0)
(291.641 1.39762 -1.05468e-019)
(292.001 1.33753 1.39795e-022)
(292.242 1.30491 7.57731e-023)
(292.43 1.23303 1.14461e-019)
(292.51 1.14782 0)
(292.535 1.05632 0)
(292.602 1.00711 -1.25564e-019)
(292.697 0.979622 1.29213e-019)
(292.786 0.928428 0)
(292.876 0.897493 1.36275e-019)
(293.047 0.828623 -2.78861e-019)
(293.34 0.767523 1.01641e-022)
(293.714 0.717011 1.45795e-019)
(294.177 0.680522 0)
(294.758 0.634246 0)
(295.433 0.705965 1.56656e-019)
(296.163 0.900667 -3.21887e-019)
(296.973 1.23905 5.75423e-022)
(297.736 1.48477 3.39642e-019)
(298.7 1.77958 -1.74871e-019)
(299.29 1.67075 0)
(0.0493203 -0.000796599 0)
(0.200973 -0.00271442 -3.37664e-021)
(0.594536 -0.00665298 3.47371e-021)
(1.5809 -0.0129703 -7.09726e-021)
(3.72807 -0.0238992 7.33605e-021)
(7.8369 -0.0410579 0)
(14.6477 -0.0705868 1.49634e-020)
(24.4017 -0.111815 -3.09356e-020)
(36.6449 -0.165988 1.60918e-020)
(50.4196 -0.226363 1.54693e-020)
(64.8389 -0.291634 -1.65439e-020)
(79.3053 -0.350643 0)
(93.5652 -0.412579 0)
(107.514 -0.458219 0)
(121.125 -0.515121 0)
(134.343 -0.570136 3.32223e-020)
(147.144 -0.642872 -6.90573e-020)
(159.568 -0.677316 7.00705e-020)
(171.493 -0.807027 -7.07557e-020)
(183.006 -0.813585 3.68811e-020)
(194.02 -0.86783 3.56657e-020)
(204.519 -0.919405 -3.77087e-020)
(214.551 -0.943101 0)
(224.058 -0.985581 0)
(232.943 -1.03091 0)
(241.217 -1.07181 0)
(248.928 -1.09603 0)
(256.05 -1.11623 0)
(262.487 -1.12954 4.15011e-020)
(268.174 -1.14373 -8.57841e-020)
(273.13 -1.1807 4.40632e-020)
(277.417 -1.22547 0)
(281.074 -1.25163 0)
(284.169 -1.25555 -9.28061e-020)
(286.718 -1.2485 8.87925e-022)
(288.69 -1.17742 7.26859e-022)
(290.058 -1.14034 5.58116e-022)
(291.064 -1.17468 3.95366e-022)
(291.858 -1.17753 1.06573e-019)
(292.405 -1.17159 -1.08866e-019)
(292.807 -1.18022 2.23675e-019)
(293.112 -1.17358 -1.14945e-019)
(293.373 -1.15032 0)
(293.522 -1.13253 0)
(293.592 -1.16336 1.25837e-019)
(293.686 -1.15592 -1.29733e-019)
(293.801 -1.11916 0)
(293.896 -1.09997 -1.37128e-019)
(293.979 -1.04687 2.81608e-019)
(294.131 -1.00362 -1.44034e-019)
(294.39 -0.952831 1.4706e-019)
(294.718 -0.906871 -1.50581e-019)
(295.127 -0.845729 -1.53978e-019)
(295.664 -0.759247 1.58162e-019)
(296.325 -0.558496 1.6183e-019)
(297.049 -0.248726 -1.66551e-019)
(297.838 0.198816 0)
(298.559 0.530246 0)
(299.47 0.936327 0)
(300.055 0.935444 0)
(0.049214 -0.000812901 0)
(0.200439 -0.00266234 0)
(0.592793 -0.00594458 0)
(1.57623 -0.00916946 0)
(3.71771 -0.0100762 0)
(7.81755 -0.00117885 0)
(14.6178 0.0211481 0)
(24.3634 0.0657584 0)
(36.6037 0.127129 0)
(50.3778 0.194624 0)
(64.7977 0.25891 0)
(79.2609 0.318914 0)
(93.5156 0.379497 0)
(107.456 0.433778 0)
(121.041 0.487152 0)
(134.246 0.571449 0)
(147.026 0.603519 0)
(159.411 0.747672 0)
(171.295 0.739464 0)
(182.791 0.888657 0)
(193.799 0.892607 0)
(204.255 0.908244 0)
(214.226 0.962472 -3.81092e-020)
(223.687 1.04085 4.04376e-020)
(232.555 1.09857 0)
(240.811 1.12918 0)
(248.474 1.12502 0)
(255.525 1.12584 0)
(261.904 1.1559 0)
(267.563 1.21058 0)
(272.515 1.26718 0)
(276.802 1.28429 0)
(280.471 1.27704 -4.67312e-020)
(283.562 1.26507 4.86069e-020)
(286.03 1.16708 0)
(287.921 1.15169 0)
(289.244 1.11815 0)
(290.234 1.23885 0)
(291.069 1.29418 0)
(291.648 1.28185 0)
(292.026 1.20869 0)
(292.286 1.16638 1.18983e-019)
(292.494 1.11238 -1.22394e-019)
(292.595 1.01701 0)
(292.64 0.930072 0)
(292.732 0.893416 0)
(292.857 0.869852 0)
(292.989 0.813608 -1.41959e-019)
(293.123 0.772542 1.45826e-019)
(293.337 0.703001 0)
(293.683 0.646421 0)
(294.124 0.57095 0)
(294.664 0.533333 0)
(295.337 0.540004 0)
(296.128 0.598296 0)
(296.985 0.772147 0)
(297.907 1.08497 0)
(298.754 1.31531 0)
(299.785 1.67094 0)
(300.49 1.65212 0)
(0.0490977 -0.000853091 0)
(0.199817 -0.0028817 0)
(0.590555 -0.00696567 3.70624e-021)
(1.56949 -0.0132235 -3.81879e-021)
(3.70029 -0.0234901 0)
(7.77922 -0.0384226 0)
(14.5456 -0.0638645 0)
(24.2458 -0.0987727 0)
(36.4349 -0.145564 -1.63764e-020)
(50.1621 -0.19899 3.40332e-020)
(64.5431 -0.257476 -1.77019e-020)
(78.9779 -0.310746 0)
(93.2098 -0.36703 0)
(107.133 -0.403613 0)
(120.721 -0.455174 0)
(133.915 -0.499599 -3.55578e-020)
(146.699 -0.577743 1.88643e-021)
(159.102 -0.587726 3.84299e-020)
(171.01 -0.731055 0)
(182.509 -0.711426 0)
(193.507 -0.767256 3.81765e-020)
(203.999 -0.819924 -4.03605e-020)
(214.029 -0.83768 0)
(223.535 -0.871004 0)
(232.419 -0.910089 0)
(240.697 -0.948408 0)
(248.42 -0.974489 4.22729e-020)
(255.562 -0.992905 -1.26986e-021)
(262.027 -0.999546 -4.55888e-020)
(267.743 -1.00019 0)
(272.728 -1.02545 0)
(277.046 -1.07298 0)
(280.739 -1.10501 0)
(283.874 -1.12006 4.96431e-020)
(286.469 -1.1305 -4.82777e-022)
(288.492 -1.05808 -1.05726e-019)
(289.905 -1.03526 5.45074e-020)
(290.934 -1.03431 0)
(291.736 -1.01369 5.68479e-020)
(292.297 -1.02923 -5.83542e-020)
(292.715 -1.05815 -1.19558e-019)
(293.035 -1.05107 1.22959e-019)
(293.308 -1.02753 0)
(293.477 -1.02602 0)
(293.569 -1.0783 0)
(293.687 -1.06032 0)
(293.83 -1.01609 0)
(293.967 -0.996308 0)
(294.097 -0.979619 -1.50588e-019)
(294.297 -0.954917 5.60439e-023)
(294.617 -0.89899 3.14616e-019)
(295.023 -0.880038 -1.79204e-022)
(295.525 -0.805406 -1.64822e-019)
(296.163 -0.704504 0)
(296.948 -0.536912 0)
(297.82 -0.262724 -1.77358e-019)
(298.75 0.132229 1.8258e-019)
(299.59 0.470547 0)
(300.604 0.939803 1.9172e-019)
(301.323 1.0477 -2.0347e-019)
(0.0489941 -0.000870894 0)
(0.199295 -0.0028726 0)
(0.588838 -0.00653451 -3.83315e-021)
(1.56483 -0.0105865 1.1802e-020)
(3.6898 -0.0132427 -9.55176e-023)
(7.75936 -0.00736765 -1.64975e-020)
(14.5145 0.0100985 1.68252e-020)
(24.2051 0.0485627 -8.73833e-021)
(36.3903 0.103389 0)
(50.1167 0.165219 0)
(64.4988 0.223329 1.73115e-020)
(78.9311 0.27826 -1.85206e-020)
(93.1596 0.33335 1.77157e-020)
(107.076 0.380051 -1.8937e-020)
(120.638 0.427069 0)
(133.822 0.507054 0)
(146.585 0.533168 0)
(158.951 0.683002 0)
(170.824 0.651156 0)
(182.312 0.806007 -3.89806e-020)
(193.307 0.80654 4.13159e-020)
(203.759 0.809334 0)
(213.73 0.86064 0)
(223.194 0.936948 -4.16338e-020)
(232.067 0.992519 4.38661e-020)
(240.332 1.02041 0)
(248.012 1.01109 -4.37421e-020)
(255.089 1.00581 9.09533e-020)
(261.498 1.0317 -4.71749e-020)
(267.188 1.08596 0)
(272.172 1.14055 0)
(276.497 1.1554 -4.88114e-020)
(280.208 1.1473 5.07162e-020)
(283.342 1.1425 5.13846e-020)
(285.864 1.05606 -5.08432e-022)
(287.811 1.03273 -5.49161e-020)
(289.174 1.00289 5.60998e-020)
(290.193 1.11772 -2.13288e-022)
(291.049 1.18559 -1.71456e-022)
(291.646 1.16547 -1.27054e-022)
(292.044 1.08928 -1.23896e-019)
(292.323 1.05032 1.27281e-019)
(292.551 1.0041 -3.64535e-023)
(292.673 0.913167 -1.34926e-019)
(292.741 0.810654 6.9654e-020)
(292.861 0.779759 0)
(293.017 0.757611 -1.47727e-019)
(293.188 0.693673 3.0367e-019)
(293.369 0.623274 -1.55923e-019)
(293.633 0.559303 0)
(294.033 0.508949 1.62733e-019)
(294.544 0.431683 -1.66514e-019)
(295.164 0.406797 0)
(295.923 0.42154 0)
(296.82 0.498057 -1.78789e-019)
(297.8 0.608544 3.67366e-019)
(298.848 0.879769 -1.8874e-019)
(299.808 1.1377 0)
(300.937 1.59217 0)
(301.767 1.77562 0)
(0.0488862 -0.000901367 0)
(0.198725 -0.00302898 0)
(0.586815 -0.00725474 3.96432e-021)
(1.55879 -0.013519 -4.08463e-021)
(3.67427 -0.0233069 8.2955e-021)
(7.72522 -0.0363889 -8.6195e-021)
(14.4501 -0.0582314 0)
(24.0999 -0.087307 0)
(36.2381 -0.127008 1.75217e-020)
(49.9208 -0.173557 -1.86994e-020)
(64.2658 -0.22552 0)
(78.6709 -0.273255 1.81148e-020)
(92.8766 -0.324056 -1.93719e-020)
(106.776 -0.353298 1.85508e-020)
(120.342 -0.400134 -1.98128e-020)
(133.514 -0.43525 0)
(146.282 -0.517642 0)
(158.665 -0.501503 3.91347e-020)
(170.558 -0.658009 -8.10422e-020)
(182.044 -0.613779 1.91568e-021)
(193.024 -0.670413 4.27232e-020)
(203.512 -0.727907 4.13801e-020)
(213.54 -0.739082 -4.39692e-020)
(223.043 -0.763189 0)
(231.926 -0.796116 0)
(240.208 -0.832339 4.4363e-020)
(247.942 -0.861559 -4.6693e-020)
(255.105 -0.87849 0)
(261.594 -0.878113 0)
(267.336 -0.868923 -4.85579e-020)
(272.346 -0.881021 9.99395e-020)
(276.693 -0.927478 -5.13137e-020)
(280.423 -0.969315 0)
(283.596 -0.997498 0)
(286.233 -1.02385 0)
(288.304 -0.961007 5.63394e-020)
(289.76 -0.964962 -3.42656e-022)
(290.81 -0.904454 -2.42164e-022)
(291.619 -0.862068 -6.09945e-020)
(292.193 -0.893617 0)
(292.626 -0.940567 -6.39344e-020)
(292.96 -0.94093 6.57599e-020)
(293.245 -0.899461 -6.75586e-020)
(293.43 -0.946396 1.39401e-019)
(293.541 -0.989898 -1.82686e-023)
(293.68 -0.964887 -1.55328e-023)
(293.845 -0.915551 -7.63579e-020)
(294.013 -0.920849 0)
(294.181 -0.939654 -8.0529e-020)
(294.42 -0.915185 2.64873e-023)
(294.783 -0.869006 8.41003e-020)
(295.246 -0.832759 0)
(295.814 -0.773873 0)
(296.522 -0.691994 1.80229e-019)
(297.387 -0.547651 -3.69949e-019)
(298.364 -0.310214 1.90112e-019)
(299.416 0.0603968 0)
(300.374 0.40199 0)
(301.499 0.963533 -2.04556e-019)
(302.344 1.29983 4.91235e-022)
(0.0487867 -0.000918608 0)
(0.198223 -0.00304359 0)
(0.585151 -0.00700865 4.09986e-021)
(1.55424 -0.0117356 -4.22425e-021)
(3.66388 -0.0158525 8.57932e-021)
(7.70531 -0.0126148 -1.76463e-020)
(14.4185 0.000479433 1.79976e-020)
(24.0579 0.0331704 -9.34672e-021)