/*--------------------------------*- C++ -*----------------------------------*\
| =========                 |                                                 |
| \\      /  F ield         | OpenFOAM: The Open Source CFD Toolbox           |
|  \\    /   O peration     | Version:  5.x                                   |
|   \\  /    A nd           | Web:      www.OpenFOAM.org                      |
|    \\/     M anipulation  |                                                 |
\*---------------------------------------------------------------------------*/
/*   Windows 32 and 64 bit porting by blueCAPE: http://www.bluecape.com.pt   *\
|  Based on Windows porting (2.0.x v4) by Symscape: http://www.symscape.com   |
\*---------------------------------------------------------------------------*/
FoamFile
{
    version     2.0;
    format      ascii;
    class       volScalarField;
    location    "0.008";
    object      mag(U);
}
// * * * * * * * * * * * * * * * * * * * * * * * * * * * * * * * * * * * * * //

dimensions      [0 1 -1 0 0 0 0];

internalField   nonuniform List<scalar> 
10000
(
0.00687094
0.0319285
0.113355
0.365508
1.04261
2.63684
5.92877
11.8343
20.9779
33.1704
47.6042
63.0788
78.8618
94.4516
109.764
124.584
139.084
152.973
166.429
179.392
191.637
203.433
214.588
225.029
234.808
243.857
252.1
259.53
266.11
271.919
276.94
280.859
283.941
286.59
288.648
290.076
291.303
292.27
292.647
292.738
292.79
292.788
292.738
292.723
292.766
292.836
292.926
293.037
293.162
293.295
293.433
293.549
293.565
293.479
293.379
293.269
293.124
292.966
292.825
292.694
0.00687094
0.0319285
0.113355
0.365508
1.04261
2.63684
5.92877
11.8343
20.9779
33.1704
47.6042
63.0788
78.8618
94.4516
109.764
124.584
139.084
152.973
166.429
179.392
191.637
203.433
214.588
225.029
234.808
243.857
252.1
259.53
266.11
271.919
276.94
280.859
283.941
286.59
288.648
290.076
291.303
292.27
292.647
292.738
292.79
292.788
292.738
292.724
292.766
292.836
292.927
293.036
293.161
293.295
293.433
293.552
293.568
293.479
293.374
293.273
293.132
292.966
292.827
292.695
0.00687094
0.0319285
0.113355
0.365508
1.04261
2.63684
5.92877
11.8343
20.9779
33.1704
47.6042
63.0788
78.8618
94.4516
109.764
124.584
139.084
152.973
166.429
179.392
191.637
203.433
214.588
225.029
234.808
243.857
252.1
259.53
266.11
271.919
276.94
280.859
283.941
286.59
288.648
290.076
291.304
292.27
292.647
292.738
292.79
292.788
292.739
292.725
292.767
292.837
292.928
293.038
293.16
293.291
293.429
293.549
293.573
293.489
293.382
293.275
293.131
292.971
292.832
292.701
0.00687094
0.0319285
0.113355
0.365508
1.04261
2.63684
5.92877
11.8343
20.9779
33.1704
47.6042
63.0788
78.8618
94.4516
109.764
124.584
139.084
152.973
166.429
179.392
191.637
203.433
214.588
225.029
234.808
243.857
252.1
259.53
266.11
271.919
276.94
280.859
283.941
286.59
288.648
290.076
291.304
292.27
292.647
292.738
292.791
292.788
292.739
292.725
292.769
292.84
292.93
293.038
293.159
293.291
293.431
293.549
293.573
293.496
293.387
293.277
293.133
292.971
292.834
292.707
0.00687094
0.0319285
0.113355
0.365508
1.04261
2.63684
5.92877
11.8343
20.9779
33.1704
47.6042
63.0788
78.8618
94.4516
109.764
124.584
139.084
152.973
166.429
179.392
191.637
203.433
214.588
225.029
234.808
243.857
252.1
259.53
266.11
271.919
276.94
280.859
283.941
286.59
288.648
290.076
291.304
292.27
292.647
292.738
292.791
292.789
292.739
292.726
292.77
292.842
292.931
293.037
293.157
293.289
293.432
293.55
293.578
293.504
293.395
293.284
293.138
292.973
292.839
292.713
0.00687094
0.0319285
0.113355
0.365508
1.04261
2.63684
5.92877
11.8343
20.9779
33.1704
47.6042
63.0788
78.8618
94.4516
109.764
124.584
139.084
152.973
166.429
179.392
191.637
203.433
214.588
225.029
234.808
243.857
252.1
259.53
266.11
271.919
276.94
280.859
283.941
286.59
288.648
290.076
291.304
292.27
292.647
292.739
292.792
292.79
292.74
292.727
292.772
292.844
292.932
293.037
293.158
293.291
293.434
293.551
293.579
293.508
293.399
293.288
293.145
292.982
292.845
292.719
0.00687094
0.0319285
0.113355
0.365508
1.04261
2.63684
5.92877
11.8343
20.9779
33.1704
47.6042
63.0788
78.8618
94.4516
109.764
124.584
139.084
152.973
166.429
179.392
191.637
203.433
214.588
225.029
234.808
243.857
252.1
259.53
266.11
271.919
276.94
280.859
283.941
286.59
288.648
290.076
291.304
292.271
292.647
292.739
292.792
292.79
292.74
292.727
292.774
292.845
292.932
293.039
293.159
293.292
293.435
293.553
293.585
293.516
293.405
293.293
293.15
292.986
292.85
292.727
0.00687094
0.0319285
0.113355
0.365508
1.04261
2.63684
5.92877
11.8343
20.9779
33.1704
47.6042
63.0788
78.8618
94.4516
109.764
124.584
139.084
152.973
166.429
179.392
191.637
203.433
214.588
225.029
234.808
243.857
252.1
259.53
266.11
271.919
276.94
280.859
283.941
286.59
288.648
290.076
291.304
292.271
292.647
292.739
292.793
292.791
292.741
292.728
292.775
292.846
292.933
293.04
293.161
293.294
293.437
293.557
293.59
293.52
293.408
293.301
293.161
292.992
292.856
292.736
0.00687094
0.0319285
0.113355
0.365508
1.04261
2.63684
5.92877
11.8343
20.9779
33.1704
47.6042
63.0788
78.8618
94.4516
109.764
124.584
139.084
152.973
166.429
179.392
191.637
203.433
214.588
225.029
234.808
243.857
252.1
259.53
266.11
271.919
276.94
280.859
283.941
286.59
288.648
290.076
291.304
292.271
292.648
292.739
292.794
292.792
292.742
292.729
292.777
292.847
292.934
293.042
293.162
293.295
293.44
293.562
293.596
293.525
293.413
293.305
293.169
293.007
292.864
292.735
0.00687094
0.0319285
0.113355
0.365508
1.04261
2.63684
5.92877
11.8343
20.9779
33.1704
47.6042
63.0788
78.8618
94.4516
109.764
124.584
139.084
152.973
166.429
179.392
191.637
203.433
214.588
225.029
234.808
243.857
252.1
259.53
266.11
271.919
276.94
280.859
283.941
286.59
288.648
290.076
291.304
292.271
292.648
292.739
292.794
292.793
292.742
292.73
292.778
292.848
292.936
293.044
293.164
293.297
293.443
293.568
293.601
293.529
293.419
293.313
293.177
293.016
292.875
292.745
0.00687094
0.0319285
0.113355
0.365508
1.04261
2.63684
5.92877
11.8343
20.9779
33.1704
47.6042
63.0788
78.8618
94.4516
109.764
124.584
139.084
152.973
166.429
179.392
191.637
203.433
214.588
225.029
234.808
243.857
252.1
259.53
266.11
271.919
276.94
280.859
283.941
286.59
288.648
290.076
291.304
292.271
292.648
292.74
292.795
292.794
292.743
292.731
292.779
292.85
292.939
293.046
293.165
293.299
293.446
293.573
293.607
293.534
293.425
293.321
293.186
293.025
292.886
292.755
0.00687094
0.0319285
0.113355
0.365508
1.04261
2.63684
5.92877
11.8343
20.9779
33.1704
47.6042
63.0788
78.8618
94.4516
109.764
124.584
139.084
152.973
166.429
179.392
191.637
203.433
214.588
225.029
234.808
243.857
252.1
259.53
266.11
271.919
276.94
280.859
283.941
286.59
288.648
290.076
291.304
292.271
292.648
292.74
292.796
292.795
292.744
292.732
292.779
292.852
292.941
293.048
293.167
293.301
293.449
293.577
293.613
293.539
293.433
293.331
293.195
293.034
292.898
292.766
0.00687094
0.0319285
0.113355
0.365508
1.04261
2.63684
5.92877
11.8343
20.9779
33.1704
47.6042
63.0788
78.8618
94.4516
109.764
124.584
139.084
152.973
166.429
179.392
191.637
203.433
214.588
225.029
234.808
243.857
252.1
259.53
266.11
271.919
276.94
280.859
283.941
286.59
288.648
290.076
291.304
292.271
292.648
292.74
292.796
292.796
292.745
292.732
292.78
292.854
292.943
293.049
293.169
293.303
293.453
293.583
293.617
293.545
293.443
293.343
293.204
293.042
292.909
292.778
0.00687094
0.0319285
0.113355
0.365508
1.04261
2.63684
5.92877
11.8343
20.9779
33.1704
47.6042
63.0788
78.8618
94.4516
109.764
124.584
139.084
152.973
166.429
179.392
191.637
203.433
214.588
225.029
234.808
243.857
252.1
259.53
266.11
271.919
276.94
280.859
283.941
286.59
288.648
290.076
291.305
292.272
292.649
292.741
292.797
292.797
292.746
292.734
292.781
292.855
292.945
293.051
293.17
293.305
293.456
293.588
293.624
293.554
293.452
293.352
293.213
293.054
292.922
292.789
0.00687094
0.0319285
0.113355
0.365508
1.04261
2.63684
5.92877
11.8343
20.9779
33.1704
47.6042
63.0788
78.8618
94.4516
109.764
124.584
139.084
152.973
166.429
179.392
191.637
203.433
214.588
225.029
234.808
243.857
252.1
259.53
266.11
271.919
276.94
280.859
283.941
286.59
288.648
290.076
291.305
292.272
292.649
292.741
292.798
292.798
292.748
292.735
292.782
292.855
292.947
293.054
293.173
293.308
293.459
293.593
293.631
293.563
293.461
293.358
293.222
293.068
292.937
292.803
0.00687094
0.0319285
0.113355
0.365508
1.04261
2.63684
5.92877
11.8343
20.9779
33.1704
47.6042
63.0788
78.8618
94.4516
109.764
124.584
139.084
152.973
166.429
179.392
191.637
203.433
214.588
225.029
234.808
243.857
252.1
259.53
266.11
271.919
276.94
280.859
283.941
286.59
288.648
290.076
291.305
292.272
292.649
292.741
292.798
292.799
292.749
292.736
292.783
292.857
292.948
293.055
293.175
293.31
293.463
293.598
293.638
293.572
293.47
293.368
293.237
293.086
292.949
292.812
0.00687094
0.0319285
0.113355
0.365508
1.04261
2.63684
5.92877
11.8343
20.9779
33.1704
47.6042
63.0788
78.8618
94.4516
109.764
124.584
139.084
152.973
166.429
179.392
191.637
203.433
214.588
225.029
234.808
243.857
252.1
259.53
266.11
271.919
276.94
280.859
283.941
286.59
288.648
290.077
291.305
292.272
292.649
292.742
292.799
292.8
292.75
292.737
292.785
292.859
292.949
293.055
293.177
293.313
293.466
293.603
293.645
293.581
293.48
293.379
293.252
293.102
292.968
292.833
0.00687094
0.0319285
0.113355
0.365508
1.04261
2.63684
5.92877
11.8343
20.9779
33.1704
47.6042
63.0788
78.8618
94.4516
109.764
124.584
139.084
152.973
166.429
179.392
191.637
203.433
214.588
225.029
234.808
243.857
252.1
259.53
266.11
271.919
276.94
280.859
283.941
286.59
288.648
290.077
291.305
292.272
292.649
292.742
292.8
292.801
292.751
292.738
292.787
292.862
292.949
293.055
293.179
293.317
293.47
293.609
293.652
293.588
293.49
293.393
293.267
293.117
292.988
292.853
0.00687094
0.0319285
0.113355
0.365508
1.04261
2.63684
5.92877
11.8343
20.9779
33.1704
47.6042
63.0788
78.8618
94.4516
109.764
124.584
139.084
152.973
166.429
179.392
191.637
203.433
214.588
225.029
234.808
243.857
252.1
259.53
266.11
271.919
276.94
280.859
283.941
286.591
288.649
290.077
291.305
292.272
292.65
292.743
292.8
292.802
292.752
292.74
292.788
292.863
292.95
293.056
293.181
293.32
293.474
293.614
293.657
293.593
293.502
293.409
293.282
293.132
293.009
292.872
0.00687094
0.0319285
0.113355
0.365508
1.04261
2.63684
5.92877
11.8343
20.9779
33.1704
47.6042
63.0788
78.8618
94.4516
109.764
124.584
139.084
152.973
166.429
179.392
191.637
203.433
214.588
225.029
234.808
243.857
252.1
259.53
266.11
271.919
276.94
280.859
283.941
286.591
288.649
290.077
291.305
292.272
292.65
292.743
292.801
292.803
292.753
292.741
292.79
292.864
292.951
293.056
293.182
293.323
293.478
293.62
293.662
293.598
293.514
293.426
293.296
293.146
293.031
292.895
0.00687094
0.0319285
0.113355
0.365508
1.04261
2.63684
5.92877
11.8343
20.9779
33.1704
47.6042
63.0788
78.8618
94.4516
109.764
124.584
139.084
152.973
166.429
179.392
191.637
203.433
214.588
225.029
234.808
243.857
252.1
259.53
266.11
271.919
276.94
280.859
283.941
286.591
288.649
290.077
291.305
292.273
292.65
292.744
292.802
292.804
292.755
292.743
292.792
292.865
292.951
293.057
293.183
293.325
293.482
293.625
293.668
293.605
293.527
293.442
293.313
293.165
293.052
292.914
0.00687094
0.0319285
0.113355
0.365508
1.04261
2.63684
5.92877
11.8343
20.9779
33.1704
47.6042
63.0788
78.8618
94.4516
109.764
124.584
139.084
152.973
166.429
179.392
191.637
203.433
214.588
225.029
234.808
243.857
252.1
259.53
266.11
271.919
276.94
280.859
283.941
286.591
288.649
290.077
291.306
292.273
292.65
292.744
292.802
292.805
292.756
292.745
292.794
292.866
292.952
293.058
293.185
293.328
293.486
293.63
293.673
293.613
293.539
293.457
293.331
293.183
293.071
292.932
0.00687094
0.0319285
0.113355
0.365508
1.04261
2.63684
5.92877
11.8343
20.9779
33.1704
47.6042
63.0788
78.8618
94.4516
109.764
124.584
139.084
152.973
166.429
179.392
191.637
203.433
214.588
225.029
234.808
243.857
252.1
259.53
266.11
271.919
276.94
280.859
283.941
286.591
288.649
290.077
291.306
292.273
292.651
292.744
292.803
292.806
292.757
292.747
292.796
292.868
292.953
293.059
293.186
293.33
293.489
293.635
293.68
293.621
293.551
293.47
293.347
293.205
293.087
292.944
0.00687094
0.0319285
0.113355
0.365508
1.04261
2.63684
5.92877
11.8343
20.9779
33.1704
47.6042
63.0788
78.8618
94.4516
109.764
124.584
139.084
152.973
166.429
179.392
191.637
203.433
214.588
225.029
234.808
243.857
252.1
259.53
266.11
271.919
276.94
280.859
283.941
286.591
288.649
290.077
291.306
292.273
292.651
292.745
292.804
292.806
292.759
292.749
292.797
292.869
292.954
293.06
293.188
293.332
293.492
293.64
293.686
293.63
293.563
293.48
293.363
293.227
293.101
292.957
0.00687094
0.0319285
0.113355
0.365508
1.04261
2.63684
5.92877
11.8343
20.9779
33.1704
47.6042
63.0788
78.8618
94.4516
109.764
124.584
139.084
152.973
166.429
179.392
191.637
203.433
214.588
225.029
234.808
243.857
252.1
259.53
266.11
271.919
276.94
280.859
283.941
286.591
288.649
290.077
291.306
292.273
292.651
292.745
292.804
292.807
292.76
292.751
292.799
292.87
292.955
293.061
293.189
293.334
293.495
293.645
293.693
293.639
293.574
293.491
293.38
293.249
293.114
292.97
0.00687094
0.0319285
0.113355
0.365508
1.04261
2.63684
5.92877
11.8343
20.9779
33.1704
47.6042
63.0788
78.8618
94.4516
109.764
124.584
139.084
152.973
166.429
179.392
191.637
203.433
214.588
225.029
234.808
243.857
252.1
259.53
266.11
271.919
276.941
280.859
283.941
286.591
288.649
290.077
291.306
292.273
292.651
292.746
292.805
292.808
292.762
292.753
292.801
292.871
292.957
293.063
293.191
293.336
293.498
293.65
293.699
293.648
293.585
293.504
293.399
293.273
293.134
292.987
0.00687094
0.0319285
0.113355
0.365508
1.04261
2.63684
5.92877
11.8343
20.9779
33.1704
47.6042
63.0788
78.8618
94.4516
109.764
124.584
139.084
152.973
166.429
179.392
191.637
203.433
214.588
225.029
234.808
243.857
252.1
259.53
266.11
271.919
276.941
280.859
283.941
286.591
288.649
290.077
291.306
292.273
292.651
292.746
292.805
292.809
292.763
292.755
292.802
292.873
292.959
293.064
293.192
293.338
293.501
293.654
293.706
293.656
293.594
293.518
293.416
293.301
293.165
293.012
0.00687094
0.0319285
0.113355
0.365508
1.04261
2.63684
5.92877
11.8343
20.9779
33.1704
47.6042
63.0788
78.8618
94.4516
109.764
124.584
139.084
152.973
166.429
179.392
191.637
203.433
214.588
225.029
234.808
243.857
252.1
259.531
266.11
271.919
276.941
280.859
283.941
286.591
288.649
290.077
291.306
292.273
292.652
292.747
292.806
292.81
292.764
292.757
292.804
292.875
292.96
293.065
293.194
293.34
293.503
293.658
293.712
293.664
293.603
293.53
293.432
293.326
293.207
293.05
0.00687094
0.0319285
0.113355
0.365508
1.04261
2.63684
5.92877
11.8343
20.9779
33.1704
47.6042
63.0788
78.8618
94.4516
109.764
124.584
139.084
152.973
166.429
179.392
191.637
203.433
214.588
225.029
234.808
243.857
252.1
259.531
266.11
271.919
276.941
280.859
283.941
286.591
288.649
290.078
291.306
292.274
292.652
292.747
292.807
292.81
292.765
292.758
292.806
292.877
292.962
293.067
293.196
293.342
293.505
293.661
293.719
293.673
293.611
293.542
293.448
293.345
293.256
293.105
0.00687094
0.0319285
0.113355
0.365508
1.04261
2.63684
5.92877
11.8343
20.9779
33.1704
47.6042
63.0788
78.8618
94.4516
109.764
124.584
139.084
152.973
166.429
179.392
191.637
203.433
214.588
225.029
234.808
243.857
252.1
259.531
266.11
271.919
276.941
280.859
283.941
286.591
288.649
290.078
291.306
292.274
292.652
292.748
292.807
292.811
292.767
292.76
292.808
292.878
292.964
293.068
293.198
293.344
293.507
293.665
293.726
293.68
293.618
293.553
293.465
293.368
293.305
293.158
0.00687094
0.0319285
0.113355
0.365508
1.04261
2.63684
5.92877
11.8343
20.9779
33.1704
47.6042
63.0788
78.8618
94.4516
109.764
124.584
139.084
152.973
166.429
179.392
191.637
203.433
214.588
225.029
234.808
243.857
252.1
259.531
266.11
271.919
276.941
280.859
283.941
286.591
288.649
290.078
291.307
292.274
292.652
292.748
292.807
292.812
292.768
292.762
292.809
292.88
292.965
293.069
293.199
293.346
293.509
293.669
293.732
293.687
293.626
293.564
293.484
293.396
293.346
293.196
0.00687094
0.0319285
0.113355
0.365508
1.04261
2.63684
5.92877
11.8343
20.9779
33.1704
47.6042
63.0788
78.8618
94.4516
109.764
124.584
139.084
152.973
166.429
179.392
191.637
203.433
214.588
225.029
234.808
243.857
252.1
259.531
266.11
271.919
276.941
280.859
283.941
286.591
288.649
290.078
291.307
292.274
292.652
292.748
292.808
292.813
292.769
292.763
292.811
292.882
292.966
293.07
293.201
293.348
293.512
293.673
293.737
293.693
293.633
293.576
293.504
293.424
293.383
293.233
0.00687094
0.0319285
0.113355
0.365508
1.04261
2.63684
5.92877
11.8343
20.9779
33.1704
47.6042
63.0788
78.8618
94.4516
109.764
124.584
139.084
152.973
166.429
179.392
191.637
203.433
214.588
225.029
234.808
243.857
252.1
259.531
266.11
271.919
276.941
280.859
283.941
286.591
288.649
290.078
291.307
292.274
292.653
292.749
292.808
292.813
292.771
292.765
292.813
292.883
292.967
293.071
293.202
293.35
293.515
293.677
293.742
293.698
293.639
293.589
293.526
293.454
293.416
293.268
0.00687094
0.0319285
0.113355
0.365508
1.04261
2.63684
5.92877
11.8343
20.9779
33.1704
47.6042
63.0788
78.8618
94.4516
109.764
124.584
139.084
152.973
166.429
179.392
191.637
203.433
214.588
225.029
234.808
243.857
252.1
259.531
266.11
271.919
276.941
280.859
283.941
286.591
288.649
290.078
291.307
292.274
292.653
292.749
292.809
292.814
292.772
292.767
292.814
292.884
292.968
293.072
293.204
293.352
293.518
293.681
293.746
293.702
293.646
293.6
293.548
293.486
293.449
293.3
0.00687094
0.0319285
0.113355
0.365508
1.04261
2.63684
5.92877
11.8343
20.9779
33.1704
47.6042
63.0788
78.8618
94.4516
109.764
124.584
139.084
152.973
166.429
179.392
191.637
203.433
214.588
225.029
234.808
243.857
252.1
259.531
266.11
271.919
276.941
280.859
283.941
286.591
288.649
290.078
291.307
292.274
292.653
292.749
292.809
292.814
292.773
292.768
292.816
292.886
292.969
293.073
293.205
293.355
293.522
293.685
293.75
293.706
293.653
293.612
293.567
293.519
293.485
293.333
0.00687094
0.0319285
0.113355
0.365508
1.04261
2.63684
5.92877
11.8343
20.9779
33.1704
47.6042
63.0788
78.8618
94.4516
109.764
124.584
139.084
152.973
166.429
179.392
191.637
203.433
214.588
225.029
234.808
243.857
252.1
259.531
266.11
271.919
276.941
280.859
283.941
286.591
288.649
290.078
291.307
292.274
292.653
292.75
292.809
292.815
292.774
292.77
292.818
292.887
292.97
293.075
293.207
293.357
293.525
293.689
293.753
293.71
293.661
293.623
293.584
293.549
293.526
293.374
0.00687094
0.0319285
0.113355
0.365508
1.04261
2.63684
5.92877
11.8343
20.9779
33.1704
47.6042
63.0788
78.8618
94.4516
109.764
124.584
139.084
152.973
166.429
179.392
191.637
203.433
214.588
225.029
234.808
243.857
252.1
259.531
266.11
271.919
276.941
280.859
283.942
286.591
288.649
290.078
291.307
292.274
292.653
292.75
292.81
292.816
292.775
292.772
292.82
292.888
292.97
293.076
293.208
293.36
293.528
293.693
293.757
293.714
293.669
293.634
293.6
293.577
293.57
293.422
0.00687094
0.0319285
0.113355
0.365508
1.04261
2.63684
5.92877
11.8343
20.9779
33.1704
47.6042
63.0788
78.8618
94.4516
109.764
124.584
139.084
152.973
166.429
179.392
191.637
203.433
214.588
225.029
234.808
243.857
252.1
259.531
266.11
271.919
276.941
280.859
283.942
286.591
288.649
290.078
291.307
292.275
292.653
292.75
292.81
292.816
292.777
292.773
292.821
292.889
292.971
293.077
293.209
293.362
293.531
293.696
293.759
293.718
293.676
293.644
293.616
293.605
293.616
293.472
0.00687094
0.0319285
0.113355
0.365508
1.04261
2.63684
5.92877
11.8343
20.9779
33.1704
47.6042
63.0788
78.8618
94.4516
109.764
124.584
139.084
152.973
166.429
179.392
191.637
203.433
214.588
225.029
234.808
243.857
252.1
259.531
266.11
271.919
276.941
280.859
283.942
286.591
288.65
290.078
291.307
292.275
292.653
292.751
292.81
292.817
292.778
292.775
292.823
292.89
292.972
293.078
293.21
293.363
293.534
293.7
293.763
293.722
293.683
293.654
293.631
293.633
293.663
293.522
0.00687094
0.0319285
0.113355
0.365508
1.04261
2.63684
5.92877
11.8343
20.9779
33.1704
47.6042
63.0788
78.8618
94.4516
109.764
124.584
139.084
152.973
166.429
179.392
191.637
203.433
214.588
225.029
234.808
243.857
252.1
259.531
266.11
271.919
276.941
280.859
283.942
286.591
288.65
290.078
291.307
292.275
292.654
292.751
292.811
292.817
292.779
292.776
292.825
292.891
292.973
293.079
293.211
293.365
293.536
293.703
293.766
293.727
293.689
293.663
293.646
293.661
293.709
293.571
0.00687094
0.0319285
0.113355
0.365508
1.04261
2.63684
5.92877
11.8343
20.9779
33.1704
47.6042
63.0788
78.8618
94.4516
109.764
124.584
139.084
152.973
166.429
179.392
191.637
203.433
214.588
225.029
234.808
243.857
252.1
259.531
266.11
271.919
276.941
280.859
283.942
286.591
288.65
290.078
291.307
292.275
292.654
292.751
292.811
292.818
292.78
292.778
292.826
292.892
292.973
293.08
293.212
293.366
293.539
293.706
293.77
293.732
293.696
293.672
293.66
293.689
293.752
293.619
0.00687094
0.0319285
0.113355
0.365508
1.04261
2.63684
5.92877
11.8343
20.9779
33.1704
47.6042
63.0788
78.8618
94.4516
109.764
124.584
139.084
152.973
166.429
179.392
191.637
203.433
214.588
225.029
234.808
243.857
252.1
259.531
266.11
271.919
276.941
280.859
283.942
286.591
288.65
290.078
291.307
292.275
292.654
292.752
292.811
292.818
292.781
292.779
292.828
292.893
292.974
293.081
293.213
293.368
293.542
293.71
293.774
293.736
293.702
293.681
293.675
293.717
293.795
293.669
0.00687094
0.0319285
0.113355
0.365508
1.04261
2.63684
5.92877
11.8343
20.9779
33.1704
47.6042
63.0788
78.8618
94.4516
109.764
124.584
139.084
152.973
166.429
179.392
191.637
203.433
214.588
225.029
234.808
243.857
252.1
259.531
266.11
271.919
276.941
280.859
283.942
286.591
288.65
290.078
291.308
292.275
292.654
292.752
292.811
292.818
292.782
292.78
292.829
292.895
292.975
293.081
293.214
293.369
293.544
293.713
293.778
293.741
293.708
293.69
293.689
293.745
293.84
293.722
0.00687094
0.0319285
0.113355
0.365508
1.04261
2.63684
5.92877
11.8343
20.9779
33.1704
47.6042
63.0788
78.8618
94.4516
109.764
124.584
139.084
152.973
166.429
179.392
191.637
203.433
214.588
225.029
234.808
243.857
252.1
259.531
266.11
271.919
276.941
280.859
283.942
286.591
288.65
290.078
291.308
292.275
292.654
292.752
292.811
292.819
292.783
292.782
292.831
292.896
292.976
293.082
293.215
293.37
293.546
293.717
293.782
293.745
293.714
293.698
293.703
293.772
293.885
293.778
0.00687094
0.0319285
0.113355
0.365508
1.04261
2.63684
5.92877
11.8343
20.9779
33.1704
47.6042
63.0788
78.8618
94.4516
109.764
124.584
139.084
152.973
166.429
179.392
191.637
203.433
214.588
225.029
234.808
243.857
252.1
259.531
266.11
271.919
276.941
280.859
283.942
286.591
288.65
290.079
291.308
292.275
292.654
292.752
292.812
292.819
292.784
292.783
292.832
292.897
292.976
293.083
293.216
293.371
293.547
293.72
293.785
293.748
293.719
293.706
293.716
293.8
293.933
293.837
0.00687094
0.0319285
0.113355
0.365508
1.04261
2.63684
5.92877
11.8343
20.9779
33.1704
47.6042
63.0788
78.8618
94.4516
109.764
124.584
139.084
152.973
166.429
179.392
191.637
203.433
214.588
225.029
234.808
243.857
252.1
259.531
266.11
271.919
276.941
280.859
283.942
286.591
288.65
290.079
291.308
292.275
292.654
292.753
292.812
292.82
292.785
292.784
292.834
292.898
292.977
293.083
293.217
293.372
293.549
293.723
293.789
293.752
293.724
293.713
293.729
293.826
293.983
293.9
0.00687094
0.0319285
0.113355
0.365508
1.04261
2.63684
5.92877
11.8343
20.9779
33.1704
47.6042
63.0788
78.8618
94.4516
109.764
124.584
139.084
152.973
166.429
179.392
191.637
203.433
214.588
225.029
234.808
243.857
252.1
259.531
266.11
271.919
276.941
280.859
283.942
286.591
288.65
290.079
291.308
292.275
292.654
292.753
292.812
292.82
292.786
292.785
292.835
292.899
292.978
293.084
293.217
293.372
293.551
293.726
293.793
293.755
293.729
293.72
293.741
293.85
294.035
293.969
0.00687094
0.0319285
0.113355
0.365508
1.04261
2.63684
5.92877
11.8343
20.9779
33.1704
47.6042
63.0788
78.8618
94.4516
109.764
124.584
139.084
152.973
166.429
179.392
191.637
203.433
214.588
225.029
234.808
243.857
252.1
259.531
266.11
271.919
276.941
280.859
283.942
286.591
288.65
290.079
291.308
292.275
292.655
292.753
292.812
292.82
292.787
292.786
292.836
292.9
292.978
293.085
293.218
293.373
293.552
293.729
293.797
293.759
293.733
293.727
293.752
293.874
294.089
294.043
0.00687094
0.0319285
0.113355
0.365508
1.04261
2.63684
5.92877
11.8343
20.9779
33.1704
47.6042
63.0788
78.8618
94.4516
109.764
124.584
139.084
152.973
166.429
179.392
191.637
203.433
214.588
225.029
234.808
243.857
252.1
259.531
266.11
271.919
276.941
280.859
283.942
286.591
288.65
290.079
291.308
292.276
292.655
292.753
292.812
292.821
292.787
292.787
292.837
292.901
292.979
293.085
293.219
293.374
293.554
293.732
293.8
293.763
293.737
293.734
293.763
293.896
294.146
294.122
0.00687094
0.0319285
0.113355
0.365508
1.04261
2.63684
5.92877
11.8343
20.9779
33.1704
47.6042
63.0788
78.8618
94.4516
109.764
124.584
139.084
152.973
166.429
179.392
191.637
203.433
214.588
225.029
234.808
243.857
252.1
259.531
266.11
271.919
276.941
280.859
283.942
286.591
288.65
290.079
291.308
292.276
292.655
292.753
292.813
292.821
292.788
292.788
292.838
292.903
292.98
293.086
293.219
293.375
293.555
293.734
293.804
293.767
293.742
293.74
293.774
293.916
294.205
294.205
0.00687094
0.0319285
0.113355
0.365508
1.04261
2.63684
5.92877
11.8343
20.9779
33.1704
47.6042
63.0788
78.8618
94.4516
109.764
124.584
139.084
152.973
166.429
179.392
191.637
203.433
214.588
225.029
234.808
243.857
252.1
259.531
266.11
271.919
276.941
280.859
283.942
286.591
288.65
290.079
291.308
292.276
292.655
292.754
292.813
292.822
292.79
292.79
292.841
292.905
292.982
293.087
293.221
293.377
293.56
293.742
293.814
293.776
293.754
293.758
293.805
293.975
294.39
295.517
0.00687094
0.0319285
0.113355
0.365508
1.04261
2.63684
5.92877
11.8343
20.9779
33.1704
47.6042
63.0788
78.8618
94.4516
109.764
124.584
139.084
152.973
166.429
179.392
191.637
203.433
214.588
225.029
234.808
243.857
252.1
259.531
266.11
271.919
276.941
280.859
283.942
286.591
288.65
290.079
291.308
292.276
292.656
292.755
292.814
292.824
292.794
292.794
292.845
292.909
292.986
293.091
293.224
293.381
293.565
293.753
293.83
293.792
293.774
293.792
293.857
294.067
294.561
295.827
0.00687094
0.0319285
0.113355
0.365508
1.04261
2.63684
5.92877
11.8343
20.9779
33.1704
47.6042
63.0788
78.8618
94.4516
109.764
124.584
139.084
152.973
166.429
179.392
191.637
203.433
214.588
225.029
234.808
243.857
252.1
259.531
266.11
271.919
276.941
280.859
283.942
286.592
288.65
290.079
291.309
292.276
292.656
292.756
292.815
292.826
292.797
292.798
292.849
292.914
292.99
293.094
293.227
293.387
293.572
293.762
293.845
293.812
293.799
293.832
293.918
294.151
294.709
296.097
0.00687094
0.0319285
0.113355
0.365508
1.04261
2.63684
5.92877
11.8343
20.9779
33.1704
47.6042
63.0788
78.8618
94.4516
109.764
124.584
139.084
152.973
166.429
179.392
191.637
203.433
214.588
225.029
234.808
243.857
252.1
259.531
266.11
271.919
276.941
280.859
283.942
286.592
288.65
290.079
291.309
292.277
292.657
292.757
292.817
292.828
292.8
292.802
292.853
292.919
292.994
293.097
293.231
293.392
293.58
293.772
293.858
293.827
293.82
293.865
293.97
294.238
294.873
296.378
0.00687094
0.0319285
0.113355
0.365508
1.04261
2.63684
5.92877
11.8343
20.9779
33.1704
47.6042
63.0788
78.8618
94.4516
109.764
124.584
139.084
152.973
166.429
179.392
191.637
203.433
214.588
225.029
234.808
243.857
252.1
259.531
266.11
271.919
276.941
280.859
283.942
286.592
288.651
290.08
291.309
292.277
292.657
292.758
292.818
292.83
292.803
292.806
292.858
292.923
292.998
293.1
293.235
293.399
293.589
293.779
293.869
293.847
293.846
293.899
294.022
294.328
295.034
296.637
0.00687094
0.0319285
0.113355
0.365508
1.04261
2.63684
5.92877
11.8343
20.9779
33.1704
47.6042
63.0788
78.8618
94.4516
109.764
124.584
139.084
152.973
166.429
179.392
191.637
203.433
214.588
225.029
234.808
243.857
252.1
259.531
266.11
271.919
276.941
280.859
283.942
286.592
288.651
290.08
291.31
292.278
292.658
292.759
292.82
292.833
292.806
292.81
292.862
292.928
293.003
293.105
293.239
293.407
293.597
293.786
293.878
293.862
293.867
293.934
294.079
294.422
295.168
296.798
0.00687094
0.0319285
0.113355
0.365508
1.04261
2.63684
5.92877
11.8343
20.9779
33.1704
47.6042
63.0788
78.8618
94.4516
109.764
124.584
139.084
152.973
166.429
179.392
191.637
203.433
214.588
225.029
234.808
243.857
252.1
259.531
266.11
271.919
276.941
280.859
283.942
286.592
288.651
290.08
291.31
292.278
292.659
292.76
292.822
292.835
292.809
292.814
292.867
292.932
293.009
293.111
293.245
293.413
293.608
293.805
293.895
293.876
293.889
293.965
294.121
294.478
295.236
296.904
0.00687094
0.0319285
0.113355
0.365508
1.04261
2.63684
5.92877
11.8343
20.9779
33.1704
47.6042
63.0788
78.8618
94.4516
109.764
124.584
139.084
152.973
166.429
179.392
191.637
203.433
214.588
225.029
234.808
243.857
252.1
259.531
266.11
271.919
276.941
280.859
283.942
286.592
288.651
290.08
291.31
292.278
292.659
292.762
292.825
292.839
292.813
292.818
292.87
292.937
293.016
293.117
293.25
293.417
293.617
293.821
293.911
293.891
293.912
293.995
294.162
294.538
295.316
297.008
0.00687094
0.0319285
0.113355
0.365508
1.04261
2.63684
5.92877
11.8343
20.9779
33.1704
47.6042
63.0788
78.8618
94.4516
109.764
124.584
139.084
152.973
166.429
179.392
191.637
203.433
214.588
225.029
234.808
243.857
252.1
259.531
266.11
271.919
276.941
280.859
283.942
286.592
288.651
290.081
291.311
292.279
292.66
292.763
292.827
292.842
292.816
292.82
292.873
292.943
293.022
293.122
293.256
293.423
293.628
293.834
293.922
293.907
293.936
294.029
294.211
294.607
295.386
297.065
0.00687094
0.0319285
0.113355
0.365508
1.04261
2.63684
5.92877
11.8343
20.9779
33.1704
47.6042
63.0788
78.8618
94.4516
109.764
124.584
139.084
152.973
166.429
179.392
191.637
203.433
214.588
225.029
234.808
243.857
252.1
259.531
266.11
271.919
276.941
280.859
283.942
286.592
288.651
290.081
291.311
292.279
292.661
292.764
292.83
292.846
292.82
292.823
292.876
292.949
293.026
293.125
293.26
293.428
293.637
293.85
293.938
293.92
293.956
294.059
294.254
294.665
295.436
297.095
0.00687094
0.0319285
0.113355
0.365508
1.04261
2.63684
5.92877
11.8343
20.9779
33.1704
47.6042