/*--------------------------------*- C++ -*----------------------------------*\
| =========                 |                                                 |
| \\      /  F ield         | OpenFOAM: The Open Source CFD Toolbox           |
|  \\    /   O peration     | Version:  5.x                                   |
|   \\  /    A nd           | Web:      www.OpenFOAM.org                      |
|    \\/     M anipulation  |                                                 |
\*---------------------------------------------------------------------------*/
/*   Windows 32 and 64 bit porting by blueCAPE: http://www.bluecape.com.pt   *\
|  Based on Windows porting (2.0.x v4) by Symscape: http://www.symscape.com   |
\*---------------------------------------------------------------------------*/
FoamFile
{
    version     2.0;
    format      ascii;
    class       volScalarField;
    location    "0.008";
    object      p;
}
// * * * * * * * * * * * * * * * * * * * * * * * * * * * * * * * * * * * * * //

dimensions      [1 -1 -2 0 0 0 0];

internalField   nonuniform List<scalar> 
10000
(
99997.5
99988.2
99958
99862.5
99605.3
98999.4
97761.3
95558.3
92247.3
87982.5
83213.4
78337.6
73663.6
69264.5
65204
61414.3
57975.4
54741.1
51851.9
49139.6
46688
44459.9
42429.2
40593
38941.9
37468.6
36174.2
35049.1
34066.6
33240.1
32560.1
31965.8
31536.3
31222.4
30958.7
30748.2
30643.1
30542.5
30438.4
30402.2
30390.1
30371.9
30356
30355.6
30353.7
30348.1
30340.9
30331.3
30328.9
30326.9
30324.7
30319.8
30290.3
30274.6
30277.8
30320.4
30297.4
30259
30263.4
30292.3
99997.5
99988.2
99958
99862.5
99605.3
98999.4
97761.3
95558.3
92247.3
87982.5
83213.4
78337.6
73663.6
69264.5
65204
61414.3
57975.4
54741.1
51851.9
49139.6
46688
44459.9
42429.2
40593
38941.9
37468.6
36174.2
35049.1
34066.6
33240.1
32560.1
31965.8
31536.3
31222.4
30958.7
30748.2
30643.1
30542.5
30438.4
30402.2
30390.1
30371.9
30356.1
30355.5
30353.4
30347.3
30341.3
30330
30327.7
30326.5
30324.3
30321.3
30293.7
30277.6
30280.5
30312.9
30289.1
30264.3
30268
30294.2
99997.5
99988.2
99958
99862.5
99605.3
98999.4
97761.3
95558.3
92247.3
87982.5
83213.4
78337.6
73663.6
69264.5
65204
61414.3
57975.4
54741.1
51851.9
49139.6
46688
44459.9
42429.2
40593
38941.9
37468.6
36174.2
35049.1
34066.6
33240.1
32560.1
31965.8
31536.3
31222.4
30958.7
30748.2
30643.1
30542.5
30438.4
30402.2
30390.1
30371.9
30356.2
30355.1
30352.6
30345.7
30342.4
30328.6
30326
30323.6
30319.1
30315.7
30313
30278.9
30278.9
30311.4
30287.5
30265.6
30269.2
30296
99997.5
99988.2
99958
99862.5
99605.3
98999.4
97761.3
95558.3
92247.3
87982.5
83213.4
78337.6
73663.6
69264.5
65204
61414.3
57975.4
54741.1
51851.9
49139.6
46688
44459.9
42429.2
40593
38941.9
37468.6
36174.2
35049.1
34066.6
33240.1
32560.1
31965.8
31536.3
31222.4
30958.7
30748.2
30643.1
30542.5
30438.4
30402.2
30390
30371.8
30356.2
30354.9
30352.1
30345.1
30342.7
30327.6
30323.8
30324.6
30319.6
30312.2
30314.5
30284.8
30278.9
30311.8
30286.9
30267.4
30268.8
30289.7
99997.5
99988.2
99958
99862.5
99605.3
98999.4
97761.3
95558.3
92247.3
87982.5
83213.4
78337.6
73663.6
69264.5
65204
61414.3
57975.4
54741.1
51851.9
49139.6
46688
44459.9
42429.2
40593
38941.9
37468.6
36174.2
35049.1
34066.6
33240.1
32560.1
31965.8
31536.3
31222.4
30958.7
30748.1
30643.1
30542.5
30438.4
30402.2
30389.9
30371.6
30356.2
30354.9
30351.8
30345.8
30342.7
30327
30322.2
30324
30321.1
30311.5
30313.6
30289.4
30278.9
30311.2
30288.5
30267
30270.6
30282.8
99997.5
99988.2
99958
99862.5
99605.3
98999.4
97761.3
95558.3
92247.3
87982.5
83213.4
78337.6
73663.6
69264.5
65204
61414.3
57975.4
54741.1
51851.9
49139.6
46688
44459.9
42429.2
40593
38941.9
37468.6
36174.2
35049.1
34066.6
33240.1
32560.1
31965.8
31536.3
31222.4
30958.7
30748.1
30643.1
30542.5
30438.4
30402.2
30389.8
30371.5
30356.1
30354.7
30351.5
30346.4
30342.9
30326.9
30322
30324.5
30322.1
30311.6
30312.7
30292.3
30278.4
30309.9
30290
30265.4
30270.3
30285.7
99997.5
99988.2
99958
99862.5
99605.3
98999.4
97761.3
95558.3
92247.3
87982.5
83213.4
78337.6
73663.6
69264.5
65204
61414.3
57975.4
54741.1
51851.9
49139.6
46688
44459.9
42429.2
40593
38941.9
37468.6
36174.2
35049.1
34066.6
33240.1
32560.1
31965.8
31536.3
31222.4
30958.6
30748.1
30643.1
30542.5
30438.3
30402.2
30389.8
30371.3
30356.1
30354.7
30351.5
30346.8
30342.8
30326.9
30322.2
30325
30322.7
30311.5
30311.4
30292.3
30276.9
30308.9
30289.8
30265.1
30268.5
30293.3
99997.5
99988.2
99958
99862.5
99605.3
98999.4
97761.3
95558.3
92247.3
87982.5
83213.4
78337.6
73663.6
69264.5
65204
61414.3
57975.4
54741.1
51851.9
49139.6
46688
44459.9
42429.2
40593
38941.9
37468.6
36174.2
35049.1
34066.6
33240.1
32560.1
31965.8
31536.3
31222.4
30958.6
30748.1
30643.1
30542.4
30438.3
30402.2
30389.8
30371.2
30356.1
30354.9
30351.9
30347.3
30341.8
30326.7
30322.4
30324.9
30322.7
30311
30310.6
30291.5
30275.1
30307.5
30292.1
30260
30261
30301.9
99997.5
99988.2
99958
99862.5
99605.3
98999.4
97761.3
95558.3
92247.3
87982.5
83213.4
78337.6
73663.6
69264.5
65204
61414.3
57975.4
54741.1
51851.9
49139.6
46688
44459.9
42429.2
40593
38941.9
37468.6
36174.2
35049.1
34066.6
33240.1
32560.1
31965.8
31536.3
31222.4
30958.6
30748.1
30643.1
30542.4
30438.3
30402.2
30389.8
30371.2
30356.2
30355.1
30351.9
30347.6
30340.7
30326.5
30322.3
30324.5
30322.4
30311
30311
30290.3
30274.7
30307.7
30293.5
30256.1
30255.3
30300.8
99997.5
99988.2
99958
99862.5
99605.3
98999.4
97761.3
95558.3
92247.3
87982.5
83213.4
78337.6
73663.6
69264.5
65204
61414.3
57975.4
54741.1
51851.9
49139.6
46688
44459.9
42429.2
40593
38941.9
37468.6
36174.2
35049.1
34066.6
33240.1
32560.1
31965.8
31536.3
31222.4
30958.6
30748.1
30643.1
30542.4
30438.3
30402.2
30389.8
30371.2
30356.2
30355
30352
30347.4
30340.2
30326.3
30322.1
30324.2
30321.7
30311.2
30312.7
30290.1
30275.7
30309.9
30294.6
30254.7
30253.5
30294.4
99997.5
99988.2
99958
99862.5
99605.3
98999.4
97761.3
95558.3
92247.3
87982.5
83213.4
78337.6
73663.6
69264.5
65204
61414.3
57975.4
54741.1
51851.9
49139.6
46688
44459.9
42429.2
40593
38941.9
37468.6
36174.2
35049.1
34066.6
33240.1
32560.1
31965.8
31536.3
31222.4
30958.6
30748.1
30643.1
30542.4
30438.3
30402.2
30389.8
30371.2
30356.1
30355
30352.3
30347
30340.5
30326.3
30322.1
30324.2
30321.5
30311.9
30314.7
30290.3
30276.5
30308.6
30293.8
30253.2
30252.8
30289.4
99997.5
99988.2
99958
99862.5
99605.3
98999.4
97761.3
95558.3
92247.3
87982.5
83213.4
78337.6
73663.6
69264.5
65204
61414.3
57975.4
54741.1
51851.9
49139.6
46688
44459.9
42429.2
40593
38941.9
37468.6
36174.2
35049.1
34066.6
33240.1
32560.1
31965.8
31536.3
31222.4
30958.6
30748.1
30643.1
30542.4
30438.3
30402.2
30389.8
30371.1
30356.2
30355.2
30352.6
30346.8
30340.7
30326.5
30322
30324.4
30322
30313.1
30315.6
30289.2
30276.2
30306.8
30288.1
30251.1
30249.4
30287
99997.5
99988.2
99958
99862.5
99605.3
98999.4
97761.3
95558.3
92247.3
87982.5
83213.4
78337.6
73663.6
69264.5
65204
61414.3
57975.4
54741.1
51851.9
49139.6
46688
44459.9
42429.2
40593
38941.9
37468.6
36174.2
35049.1
34066.6
33240.1
32560.1
31965.8
31536.3
31222.4
30958.6
30748.1
30643
30542.4
30438.3
30402.2
30389.8
30371.1
30356.2
30355.1
30352.7
30346.6
30341.2
30326.6
30321.7
30324.5
30322.4
30313.5
30314.7
30286.3
30275.3
30305.5
30282.8
30252.9
30244.8
30285.4
99997.5
99988.2
99958
99862.5
99605.3
98999.4
97761.3
95558.3
92247.3
87982.5
83213.4
78337.6
73663.6
69264.5
65204
61414.3
57975.4
54741.1
51851.9
49139.6
46688
44459.9
42429.2
40593
38941.9
37468.6
36174.2
35049.1
34066.6
33240.1
32560.1
31965.8
31536.3
31222.4
30958.6
30748.1
30643
30542.4
30438.3
30402.2
30389.9
30371.1
30356.2
30355
30352.6
30346.2
30341.8
30326.7
30321.6
30324.5
30322
30312.1
30312.5
30282.5
30273.9
30303.1
30278.7
30252.3
30244.8
30280.2
99997.5
99988.2
99958
99862.5
99605.3
98999.4
97761.3
95558.3
92247.3
87982.5
83213.4
78337.6
73663.6
69264.5
65204
61414.3
57975.4
54741.1
51851.9
49139.6
46688
44459.9
42429.2
40593
38941.9
37468.6
36174.2
35049.1
34066.6
33240.1
32560.1
31965.8
31536.3
31222.4
30958.6
30748.1
30643
30542.4
30438.3
30402.2
30389.9
30371.1
30356.3
30355
30352.6
30345.6
30341.8
30328
30321.7
30324.1
30320.6
30310.1
30310.3
30279.2
30271.8
30301.7
30274.4
30249.1
30242.2
30275
99997.5
99988.2
99958
99862.5
99605.3
98999.4
97761.3
95558.3
92247.3
87982.5
83213.4
78337.6
73663.6
69264.5
65204
61414.3
57975.4
54741.1
51851.9
49139.6
46688
44459.9
42429.2
40593
38941.9
37468.6
36174.2
35049.1
34066.6
33240.1
32560.1
31965.8
31536.3
31222.4
30958.6
30748.1
30643
30542.3
30438.3
30402.2
30389.9
30371.1
30356.4
30355.4
30352.9
30346.3
30341.8
30327.6
30321.9
30323.7
30319.4
30308.7
30308.3
30277
30271.6
30300.6
30276.2
30240.3
30237.6
30270.6
99997.5
99988.2
99958
99862.5
99605.3
98999.4
97761.3
95558.3
92247.3
87982.5
83213.4
78337.6
73663.6
69264.5
65204
61414.3
57975.4
54741.1
51851.9
49139.6
46688
44459.9
42429.2
40593
38941.9
37468.6
36174.2
35049.1
34066.6
33240.1
32560.1
31965.8
31536.3
31222.4
30958.6
30748
30643
30542.3
30438.3
30402.2
30389.9
30371.1
30356.5
30355.7
30353.5
30347.4
30341
30327.6
30322.8
30324.2
30319
30309.2
30307.3
30276.1
30272.2
30300.9
30278.2
30236.1
30233.5
30269
99997.5
99988.2
99958
99862.5
99605.3
98999.4
97761.3
95558.3
92247.3
87982.5
83213.4
78337.6
73663.6
69264.5
65204
61414.3
57975.4
54741.1
51851.9
49139.6
46688
44459.9
42429.2
40593
38941.9
37468.6
36174.2
35049.1
34066.6
33240.1
32560.1
31965.8
31536.3
31222.4
30958.6
30748
30643
30542.3
30438.3
30402.2
30389.9
30371.2
30356.6
30356
30354
30348.2
30340.1
30328.8
30324.2
30324.9
30319.8
30311.6
30306.8
30275
30272.2
30302
30275.1
30236.3
30234.6
30269.2
99997.5
99988.2
99958
99862.5
99605.3
98999.4
97761.3
95558.3
92247.3
87982.5
83213.4
78337.6
73663.6
69264.5
65204
61414.3
57975.4
54741.1
51851.9
49139.6
46688
44459.9
42429.2
40593
38941.9
37468.6
36174.2
35049.1
34066.6
33240.1
32560.1
31965.8
31536.3
31222.4
30958.6
30748
30643
30542.3
30438.3
30402.2
30389.9
30371.3
30356.7
30356.2
30354.4
30348.3
30340.7
30330.2
30325.1
30324.9
30320.8
30314.1
30304.9
30272.1
30270.6
30301.8
30273.6
30235.7
30236
30268.3
99997.5
99988.2
99958
99862.5
99605.3
98999.4
97761.3
95558.3
92247.3
87982.5
83213.4
78337.6
73663.6
69264.5
65204
61414.3
57975.4
54741.1
51851.9
49139.6
46688
44459.9
42429.2
40593
38941.9
37468.6
36174.2
35049.1
34066.6
33240.1
32560.1
31965.8
31536.3
31222.4
30958.6
30748
30643
30542.3
30438.3
30402.2
30389.9
30371.5
30356.8
30356.3
30354.5
30348.7
30341.4
30331.3
30325.4
30324.3
30322.2
30316.5
30300.8
30269.2
30267.6
30299.1
30273.9
30233.6
30231.9
30268.5
99997.5
99988.2
99958
99862.5
99605.3
98999.4
97761.3
95558.3
92247.3
87982.5
83213.4
78337.6
73663.6
69264.5
65204
61414.3
57975.4
54741.1
51851.9
49139.6
46688
44459.9
42429.2
40593
38941.9
37468.6
36174.2
35049.1
34066.6
33240.1
32560.1
31965.8
31536.3
31222.4
30958.6
30748
30643
30542.3
30438.3
30402.2
30389.9
30371.6
30356.8
30356.2
30354.5
30349.1
30342
30332.2
30325.7
30323.6
30322.2
30317.8
30296.4
30266.1
30264.7
30294.4
30271.9
30232
30226.2
30268.8
99997.5
99988.2
99958
99862.5
99605.3
98999.4
97761.3
95558.3
92247.3
87982.5
83213.4
78337.6
73663.6
69264.5
65204
61414.3
57975.4
54741.1
51851.9
49139.6
46688
44459.9
42429.2
40593
38941.9
37468.6
36174.2
35049.1
34066.6
33240.1
32560.1
31965.8
31536.3
31222.4
30958.6
30748
30643
30542.3
30438.2
30402.2
30389.8
30371.6
30356.8
30356.1
30354.3
30349.2
30342.7
30332.7
30326
30323.4
30321.8
30317.4
30292.6
30264
30262.1
30291.7
30270.6
30235
30226.1
30270.2
99997.5
99988.2
99958
99862.5
99605.3
98999.4
97761.3
95558.3
92247.3
87982.5
83213.4
78337.6
73663.6
69264.5
65204
61414.3
57975.4
54741.1
51851.9
49139.6
46688
44459.9
42429.2
40593
38941.9
37468.6
36174.2
35049.1
34066.6
33240.1
32560.1
31965.8
31536.3
31222.4
30958.5
30748
30642.9
30542.2
30438.2
30402.2
30389.8
30371.7
30356.8
30356
30354.2
30349
30343.5
30332.8
30326.1
30322.9
30321.1
30316.4
30289.6
30262
30260.4
30292.9
30271.4
30238.6
30232.3
30273.9
99997.5
99988.2
99958
99862.5
99605.3
98999.4
97761.3
95558.3
92247.3
87982.5
83213.4
78337.6
73663.6
69264.5
65204
61414.3
57975.4
54741.1
51851.9
49139.6
46688
44459.9
42429.2
40593
38941.9
37468.6
36174.2
35049.1
34066.5
33240
32560.1
31965.8
31536.3
31222.4
30958.5
30748
30642.9
30542.2
30438.2
30402.1
30389.8
30371.7
30356.8
30356
30354
30348.8
30344
30332.7
30326.2
30322.9
30320.1
30313.4
30286.7
30258.9
30258
30292.7
30268.2
30237.4
30231.2
30278.3
99997.5
99988.2
99958
99862.5
99605.3
98999.4
97761.3
95558.3
92247.3
87982.5
83213.4
78337.6
73663.6
69264.5
65204
61414.3
57975.4
54741.1
51851.9
49139.6
46688
44459.9
42429.2
40593
38941.9
37468.6
36174.2
35049.1
34066.5
33240
32560.1
31965.8
31536.3
31222.4
30958.5
30748
30642.9
30542.2
30438.2
30402.1
30389.7
30371.7
30356.9
30356
30353.9
30348.5
30344
30332.3
30325.9
30322.6
30319
30311.1
30285
30257.1
30257.8
30292
30264.4
30231.2
30219.6
30269
99997.5
99988.2
99958
99862.5
99605.3
98999.4
97761.3
95558.3
92247.3
87982.5
83213.4
78337.6
73663.6
69264.5
65204
61414.3
57975.4
54741.1
51851.9
49139.6
46688
44459.9
42429.2
40593
38941.9
37468.6
36174.2
35049.1
34066.5
33240
32560.1
31965.8
31536.3
31222.4
30958.5
30748
30642.9
30542.2
30438.2
30402.1
30389.7
30371.8
30356.9
30355.9
30353.8
30348.9
30343.2
30331.6
30325.5
30321.3
30317.9
30310.5
30284.2
30257.8
30260
30293.6
30263.9
30232.6
30207.5
30240
99997.5
99988.2
99958
99862.5
99605.3
98999.4
97761.3
95558.3
92247.3
87982.5
83213.4
78337.6
73663.6
69264.5
65204
61414.3
57975.4
54741.1
51851.9
49139.6
46688
44459.9
42429.2
40593
38941.9
37468.6
36174.2
35049.1
34066.5
33240
32560.1
31965.8
31536.3
31222.3
30958.5
30748
30642.9
30542.2
30438.2
30402.1
30389.6
30371.8
30356.9
30355.7
30353.7
30348.6
30342.4
30330.9
30325.1
30320.3
30317.2
30310.3
30283.6
30258.4
30260.3
30294
30262.1
30240.7
30207
30208.7
99997.5
99988.2
99958
99862.5
99605.3
98999.4
97761.3
95558.3
92247.3
87982.5
83213.4
78337.6
73663.6
69264.5
65204
61414.3
57975.4
54741.1
51851.9
49139.6
46688
44459.9
42429.2
40593
38941.9
37468.6
36174.2
35049.1
34066.5
33240
32560.1
31965.8
31536.3
31222.3
30958.5
30748
30642.9
30542.2
30438.2
30402
30389.6
30371.8
30356.9
30355.6
30353.6
30348.2
30341.7
30330.5
30325.2
30319.2
30315.8
30309.9
30282.8
30258.2
30259.4
30290
30257
30239.2
30221.3
30191.3
99997.5
99988.2
99958
99862.5
99605.3
98999.4
97761.3
95558.3
92247.3
87982.5
83213.4
78337.6
73663.6
69264.5
65204
61414.3
57975.4
54741.1
51851.9
49139.6
46688
44459.9
42429.2
40593
38941.9
37468.6
36174.2
35049.1
34066.5
33240
32560.1
31965.8
31536.3
31222.3
30958.5
30747.9
30642.9
30542.2
30438.2
30402
30389.5
30371.9
30356.9
30355.7
30353.6
30348.4
30340.5
30330
30325
30318.5
30314
30308.9
30282.2
30257.2
30259.3
30286.2
30255.3
30230.7
30225.5
30192.9
99997.5
99988.2
99958
99862.5
99605.3
98999.4
97761.3
95558.3
92247.3
87982.5
83213.4
78337.6
73663.6
69264.5
65204
61414.3
57975.4
54741.1
51851.9
49139.6
46688
44459.9
42429.2
40593
38941.9
37468.6
36174.2
35049.1
34066.5
33240
32560.1
31965.8
31536.3
31222.3
30958.5
30747.9
30642.9
30542.2
30438.2
30402
30389.5
30371.9
30356.9
30355.7
30353.6
30348.7
30339.3
30329.6
30324.5
30317.3
30313.4
30308.4
30280.3
30255.3
30259.1
30284.2
30251.2
30223.4
30216.7
30208.1
99997.5
99988.2
99958
99862.5
99605.3
98999.4
97761.3
95558.3
92247.3
87982.5
83213.4
78337.6
73663.6
69264.5
65204
61414.3
57975.4
54741.1
51851.9
49139.6
46688
44459.9
42429.2
40593
38941.9
37468.6
36174.2
35049.1
34066.5
33240
32560.1
31965.8
31536.3
31222.3
30958.5
30747.9
30642.9
30542.1
30438.1
30401.9
30389.4
30371.9
30356.8
30355.6
30353.6
30348.9
30338.6
30329.6
30324.4
30315.7
30312.9
30309.2
30279.8
30254.4
30258.3
30281.8
30245.6
30216.2
30209
30220.2
99997.5
99988.2
99958
99862.5
99605.3
98999.4
97761.3
95558.3
92247.3
87982.5
83213.4
78337.6
73663.6
69264.5
65204
61414.3
57975.4
54741.1
51851.9
49139.6
46688
44459.9
42429.2
40593
38941.9
37468.6
36174.2
35049.1
34066.5
33240
32560.1
31965.8
31536.3
31222.3
30958.5
30747.9
30642.9
30542.1
30438.1
30401.9
30389.4
30371.9
30356.7
30355.4
30353.4
30349.1
30337.9
30329.4
30324.5
30315.9
30312.1
30309.2
30279.7
30254.5
30259.1
30282.2
30243.4
30209.8
30201.4
30228.9
99997.5
99988.2
99958
99862.5
99605.3
98999.4
97761.3
95558.3
92247.3
87982.5
83213.4
78337.6
73663.6
69264.5
65204
61414.3
57975.4
54741.1
51851.9
49139.6
46688
44459.9
42429.2
40593
38941.9
37468.6
36174.2
35049.1
34066.5
33240
32560.1
31965.8
31536.3
31222.3
30958.5
30747.9
30642.9
30542.1
30438.1
30401.9
30389.3
30371.8
30356.7
30355.2
30353.3
30349.3
30337.4
30329.2
30324.2
30315.9
30312.7
30309.1
30277.4
30253.9
30258.9
30284.3
30244.8
30204.4
30189
30235.8
99997.5
99988.2
99958
99862.5
99605.3
98999.4
97761.3
95558.3
92247.3
87982.5
83213.4
78337.6
73663.6
69264.5
65204
61414.3
57975.4
54741.1
51851.9
49139.6
46688
44459.9
42429.2
40593
38941.9
37468.6
36174.2
35049.1
34066.5
33240
32560.1
31965.8
31536.3
31222.3
30958.5
30747.9
30642.9
30542.1
30438.1
30401.8
30389.3
30371.8
30356.6
30355
30353.2
30349.4
30336.9
30329.1
30323.9
30315.2
30313.6
30310.2
30274.3
30252.9
30258.1
30284
30247.3
30203.8
30181.3
30226.5
99997.5
99988.2
99958
99862.5
99605.3
98999.4
97761.3
95558.3
92247.3
87982.5
83213.4
78337.6
73663.6
69264.5
65204
61414.3
57975.4
54741.1
51851.9
49139.6
46688
44459.9
42429.2
40593
38941.9
37468.6
36174.2
35049.1
34066.5
33240
32560.1
31965.8
31536.3
31222.3
30958.5
30747.9
30642.8
30542.1
30438.1
30401.8
30389.2
30371.7
30356.4
30354.8
30353.1
30349.2
30336.6
30329.1
30323.6
30314.8
30314.3
30311.1
30270.1
30251.3
30257.6
30281.4
30244.7
30209.5
30181.9
30208.5
99997.5
99988.2
99958
99862.5
99605.3
98999.4
97761.3
95558.3
92247.3
87982.5
83213.4
78337.6
73663.6
69264.5
65204
61414.3
57975.4
54741.1
51851.9
49139.6
46688
44459.9
42429.2
40593
38941.9
37468.6
36174.2
35049.1
34066.5
33240
32560.1
31965.8
31536.3
31222.3
30958.5
30747.9
30642.8
30542.1
30438.1
30401.8
30389.1
30371.6
30356.3
30354.6
30353
30348.8
30336.7
30329.1
30323.6
30315
30315.2
30311.4
30266
30250.6
30257.5
30281
30239.5
30210
30183.8
30197.9
99997.5
99988.2
99958
99862.5
99605.3
98999.4
97761.3
95558.3
92247.3
87982.5
83213.4
78337.6
73663.6
69264.5
65204
61414.3
57975.4
54741.1
51851.9
49139.6
46688
44459.9
42429.2
40593
38941.9
37468.6
36174.2
35049.1
34066.5
33240
32560.1
31965.8
31536.3
31222.3
30958.5
30747.9
30642.8
30542.1
30438.1
30401.8
30389.1
30371.5
30356.1
30354.4
30352.6
30348.1
30337.2
30329.2
30323.8
30315.2
30316
30311.3
30262.7
30250.8
30257.7
30281.5
30238.2
30210.6
30182.1
30191.7
99997.5
99988.2
99958
99862.5
99605.3
98999.4
97761.3
95558.3
92247.3
87982.5
83213.4
78337.6
73663.6
69264.5
65204
61414.3
57975.4
54741.1
51851.9
49139.6
46688
44459.9
42429.2
40593
38941.9
37468.6
36174.2
35049.1
34066.5
33240
32560.1
31965.8
31536.3
31222.3
30958.5
30747.9
30642.8
30542.1
30438.1
30401.7
30389
30371.4
30356
30354.2
30352.1
30347.6
30338
30329.3
30324.1
30315.7
30316.7
30310.9
30261.1
30251.2
30258.2
30281.3
30238
30213.1
30185.1
30184.7
99997.5
99988.2
99958
99862.5
99605.3
98999.4
97761.3
95558.3
92247.3
87982.5
83213.4
78337.6
73663.6
69264.5
65204
61414.3
57975.4
54741.1
51851.9
49139.6
46688
44459.9
42429.2
40593
38941.9
37468.6
36174.2
35049.1
34066.5
33240
32560.1
31965.8
31536.3
31222.3
30958.5
30747.9
30642.8
30542.1
30438.1
30401.7
30389
30371.4
30355.8
30354
30351.6
30347.3
30338.7
30329.5
30324.4
30316.4
30316.8
30309.7
30260
30250.6
30257.9
30279.6
30236.5
30212.2
30186.1
30185.6
99997.5
99988.2
99958
99862.5
99605.3
98999.4
97761.3
95558.3
92247.3
87982.5
83213.4
78337.6
73663.6
69264.5
65204
61414.3
57975.4
54741.1
51851.9
49139.6
46688
44459.9
42429.2
40593
38941.9
37468.6
36174.2
35049.1
34066.5
33240
32560.1
31965.8
31536.3
31222.3
30958.5
30747.9
30642.8
30542.1
30438
30401.7
30388.9
30371.3
30355.6
30353.9
30351.1
30347.1
30339.2
30329.8
30324.7
30316.8
30316.7
30308.1
30258.8
30248.9
30256.4
30275.8
30232.5
30208.3
30182.9
30188.2
99997.5
99988.2
99958
99862.5
99605.3
98999.4
97761.3
95558.3
92247.3
87982.5
83213.4
78337.6
73663.6
69264.5
65204
61414.3
57975.4
54741.1
51851.9
49139.6
46688
44459.9
42429.2
40593
38941.9
37468.6
36174.2
35049.1
34066.5
33240
32560.1
31965.8
31536.3
31222.3
30958.5
30747.9
30642.8
30542.1
30438
30401.7
30388.9
30371.2
30355.4
30353.8
30350.7
30347
30339.6
30330
30324.8
30317.4
30316.7
30306.2
30256.8
30247.1
30255
30271.9
30225.9
30200.3
30179.9
30188.8
99997.5
99988.2
99958
99862.5
99605.3
98999.4
97761.3
95558.3
92247.3
87982.5
83213.4
78337.6
73663.6
69264.5
65204
61414.3
57975.4
54741.1
51851.9
49139.6
46688
44459.9
42429.2
40593
38941.9
37468.6
36174.2
35049.1
34066.5
33240
32560.1
31965.8
31536.3
31222.3
30958.5
30747.9
30642.8
30542
30438
30401.7
30388.8
30371.2
30355.2
30353.6
30350.2
30347.1
30339.8
30330.2
30324.9
30317.7
30316.6
30304.4
30255
30246
30254.2
30269.4
30220.8
30194.2
30174.6
30187.5
99997.5
99988.2
99958
99862.5
99605.3
98999.4
97761.3
95558.3
92247.3
87982.5
83213.4
78337.6
73663.6
69264.5
65204
61414.3
57975.4
54741.1
51851.9
49139.6
46688
44459.9
42429.2
40593
38941.9
37468.6
36174.2
35049.1
34066.5
33240
32560.1
31965.8
31536.3
31222.3
30958.4
30747.9
30642.8
30542
30438
30401.6
30388.8
30371.2
30355.1
30353.4
30349.9
30347.3
30339.8
30330.3
30325.1
30318
30316.3
30303.3
30254.1
30245.5
30254.5
30269.3
30218.7
30191.3
30166.3
30186.2
99997.5
99988.2
99958
99862.5
99605.3
98999.4
97761.3
95558.3
92247.3
87982.5
83213.4
78337.6
73663.6
69264.5
65204
61414.3
57975.4
54741.1
51851.9
49139.6
46688
44459.9
42429.2
40593
38941.9
37468.6
36174.2
35049.1
34066.5
33240
32560.1
31965.8
31536.3
31222.3
30958.4
30747.9
30642.8
30542
30438
30401.6
30388.7
30371.1
30354.9
30353.3
30349.6
30347.4
30339.6
30330.5
30325.4
30318
30315.9
30302.9
30254.3
30245.4
30255.6
30270
30218.8
30193.1
30160.4
30184
99997.5
99988.2
99958
99862.5
99605.3
98999.4
97761.3
95558.3
92247.3
87982.5
83213.4
78337.6
73663.6
69264.5
65204
61414.3
57975.4
54741.1
51851.9
49139.6
46688
44459.9
42429.2
40593
38941.9
37468.6
36174.2
35049.1
34066.5
33240
32560.1
31965.8
31536.3
31222.3
30958.4
30747.9
30642.8
30542
30438
30401.6
30388.7
30371.1
30354.7
30353.1
30349.4
30347.4
30339.4
30330.6
30325.6
30317.9
30315.7
30303
30255.2
30245.4
30256.7
30269.9
30219.1
30197.9
30159.9
30180.1
99997.5
99988.2
99958
99862.5
99605.3
98999.4
97761.3
95558.3
92247.3
87982.5
83213.4
78337.6
73663.6
69264.5
65204
61414.3
57975.4
54741.1
51851.9
49139.6
46688
44459.9
42429.2
40593
38941.9
37468.6
36174.2
35049.1
34066.5
33240
32560.1
31965.8
31536.3
31222.3
30958.4
30747.9
30642.8
30542
30438
30401.6
30388.7
30371.1
30354.6
30353
30349.2
30347.4
30339.2
30330.7
30325.8
30317.7
30315.4
30302.9
30255.8
30245.3
30256.9
30268.9
30218.3
30201.1
30163.6
30173.6
99997.5
99988.2
99958
99862.5
99605.3
98999.4
97761.3
95558.3
92247.3
87982.5
83213.4
78337.6
73663.6
69264.5
65204
61414.3
57975.4
54741.1
51851.9
49139.6
46688
44459.9
42429.2
40593
38941.9
37468.6
36174.2
35049.1
34066.5
33240
32560.1
31965.8
31536.3
31222.3
30958.4
30747.9
30642.8
30542
30438
30401.6
30388.7
30371.1
30354.5
30352.9
30349.1
30347.4
30338.9
30330.7
30325.9
30317.5
30315.3
30302.9
30256.1
30245.1
30256.9
30267.9
30216.8
30201.1
30167.7
30165.2
99997.5
99988.2
99958
99862.5
99605.3
98999.4
97761.3
95558.3
92247.3
87982.5
83213.4
78337.6
73663.6
69264.5
65204
61414.3
57975.4
54741.1
51851.9
49139.6
46688
44459.9
42429.2
40593
38941.9
37468.6
36174.2
35049.1
34066.5
33240
32560.1
31965.8
31536.3
31222.3
30958.4
30747.8
30642.8
30542
30438
30401.6
30388.6
30371.1
30354.4
30352.8
30349
30347.3
30338.6
30330.7
30325.9
30317.5
30315.2
30302.7
30255.9
30245.2
30257.2
30267.4
30216
30198.8
30168.1
30157.8
99997.5
99988.2
99958
99862.5
99605.3
98999.4
97761.3
95558.3
92247.3
87982.5
83213.4
78337.6
73663.6
69264.5
65204
61414.3
57975.4
54741.1
51851.9
49139.6
46688
44459.9
42429.2
40593
38941.9
37468.6
36174.2
35049.1
34066.5
33240
32560.1
31965.8
31536.3
31222.3
30958.4
30747.8
30642.8
30542
30437.9
30401.5
30388.6
30371.1
30354.3
30352.7
30349
30347.3
30338.3
30330.6
30325.8
30317.4
30315
30302.3
30255.5
30245.6
30257.7
30267.2
30214.6
30194.8
30165.4
30150.7
99997.5
99988.2
99958
99862.5
99605.3
98999.4
97761.3
95558.3
92247.3
87982.5
83213.4
78337.6
73663.6
69264.5
65204
61414.3
57975.4
54741.1
51851.9
49139.6
46688
44459.9
42429.2
40593
38941.9
37468.6
36174.2
35049.1
34066.5
33240
32560.1
31965.8
31536.2
31222.3
30958.4
30747.8
30642.8
30542
30437.9
30401.5
30388.6
30371.2
30354.2
30352.7
30349
30347.2
30338
30330.5
30325.6
30317.4
30314.7
30301.6
30255
30245.7
30258
30266.2
30213.1
30190.5
30159.7
30141
99997.5
99988.2
99958
99862.5
99605.3
98999.4
97761.3
95558.3
92247.3
87982.5
83213.4
78337.6
73663.6
69264.5
65204
61414.3
57975.4
54741.1
51851.9
49139.6
46688
44459.9
42429.2
40593
38941.9
37468.6
36174.2
35049.1
34066.5
33240
32560.1
31965.8
31536.2
31222.3
30958.4
30747.8
30642.7
30542
30437.9
30401.5
30388.6
30371.2
30354
30352.5
30349.3
30346.7
30337.4
30330.4
30325
30317.4
30314
30300.2
30253.3
30245
30258.7
30263.6
30209.1
30181.6
30145.5
30093.9
99997.5
99988.2
99958
99862.5
99605.3
98999.4
97761.3
95558.3
92247.3
87982.5
83213.4
78337.6
73663.6
69264.5
65204
61414.3
57975.4
54741.1
51851.9
49139.6
46688
44459.9
42429.2
40593
38941.9
37468.6
36174.2
35049.1
34066.5
33240
32560.1
31965.8
31536.2
31222.3
30958.4
30747.8
30642.7
30541.9
30437.9
30401.4
30388.5
30371.3
30353.9
30352.2
30348.4
30346
30336.7
30329.8
30324
30316.8
30314.2
30301.7
30254.7
30245
30262.4
30263.8
30203.4
30179.8
30144.9
30056.4
99997.5
99988.2
99958
99862.5
99605.3
98999.4
97761.3
95558.3
92247.3
87982.5
83213.4
78337.6
73663.6
69264.5
65204
61414.3
57975.4
54741.1
51851.9
49139.6
46688
44459.9
42429.2
40593
38941.9
37468.6
36174.2
35049.1
34066.5
33240
32560.1
31965.8
31536.2
31222.3
30958.4
30747.8
30642.7
30541.9
30437.8
30401.4
30388.5
30371.3
30353.9
30352.2
30348.1
30345.8
30335.8
30329.7
30324.2
30316
30314.5
30300
30252.8
30244.9
30266
30267.2
30199.7
30155.5
30100.8
30051.7
99997.5
99988.2
99958
99862.5
99605.3
98999.4
97761.3
95558.3
92247.3
87982.5
83213.4
78337.6
73663.6
69264.5
65204
61414.3
57975.4
54741.1
51851.9
49139.6
46688
44459.9
42429.2
40593
38941.9
37468.6
36174.2
35049.1
34066.5
33240
32560.1
31965.8
31536.2
31222.2
30958.4
30747.8
30642.7
30541.9
30437.8
30401.3
30388.4
30371.3
30353.8
30352.3
30348.6
30345.9
30335.8
30329.9
30324.8
30315.9
30313.3
30296.5
30252.9
30247
30267.4
30264.5
30199.1
30159.3
30105.5
30044.1
99997.5
99988.2
99958
99862.5
99605.3
98999.4
97761.3
95558.3
92247.3
87982.5
83213.4
78337.6
73663.6
69264.5
65204
61414.3
57975.4
54741.1
51851.9
49139.6
46688
44459.9
42429.2
40593
38941.9
37468.6
36174.2
35049.1
34066.5
33240
32560.1
31965.8
31536.2
31222.2
30958.4
30747.8
30642.6
30541.8
30437.7
30401.3
30388.3
30371.3
30354
30352.7
30349.1
30346.7
30336.2
30330.6
30325
30314.7
30309.2
30292.6
30252.7
30244.3
30267.1
30258.6
30199.5
30168.9
30132.4
30054.2
99997.5
99988.2
99958
99862.5
99605.3
98999.4
97761.3
95558.3
92247.3
87982.5
83213.4
78337.6
73663.6
69264.5
65204
61414.3
57975.4
54741.1
51851.9
49139.6
46688
44459.9
42429.2
40593
38941.9
37468.6
36174.2
35049.1
34066.5
33240
32560.1
31965.8
31536.2
31222.2
30958.3
30747.7
30642.6
30541.8
30437.6
30401.2
30388.2
30371.4
30354.1
30353
30349.7
30347.3
30336
30330.5
30324.8
30314
30306.2
30289.5
30253.8
30244.8
30266.9
30256.1
30203.1
30180.6
30153
30013.7
99997.5
99988.2
99958
99862.5
99605.3
98999.4
97761.3
95558.3
92247.3
87982.5
83213.4
78337.6
73663.6
69264.5
65204
61414.3
57975.4
54741.1
51851.9
49139.6
46688
44459.9
42429.2
40593
38941.9
37468.6
36174.2
35049.1
34066.5
33240
32560.1
31965.7
31536.2
31222.2
30958.3
30747.7
30642.6
30541.8
30437.6
30401.1
30388
30371.4
30354.2
30352.8
30350.2
30347.7
30334.7
30329.6
30324.3
30313.1
30306.1
30289.6
30252.5
30244.5
30263.9
30254.6
30192.3
30156.7
30103.8
30022.5
99997.5
99988.2
99958
99862.5
99605.3
98999.4
97761.3
95558.3
92247.3
87982.5
83213.4
78337.6
73663.6
69264.5
65204
61414.3
57975.4
54741.1
51851.9
49139.6
46688
44459.9
42429.2
40593
38941.9
37468.6
36174.2
35049.1
34066.5
33240
32560.1
31965.7
31536.2
31222.2
30958.3
30747.7
30642.5
30541.7
30437.5
30401
30387.8
30371.4
30354.4
30352.8
30350.4
30347.8
30333.9
30329
30323.4
30311.6
30308
30292
30249.4
30241.1
30260.5
30248.6
30183.3
30147.3
30098.2
30027
99997.5
99988.2
99958
99862.5
99605.3
98999.4
97761.3
95558.3
92247.3
87982.5
83213.4
78337.6
73663.6
69264.5
65204
61414.3
57975.4
54741.1
51851.9
49139.6
46688
44459.9
42429.2
40593
38941.9
37468.6
36174.2
35049.1
34066.5
33240
32560.1
31965.7
31536.2
31222.2
30958.3
30747.7
30642.5
30541.7
30437.5
30400.9
30387.7
30371.2
30354.6
30352.8
30350.5
30347.5
30333.4
30329
30323.7
30312
30309
30294.9
30248.3
30239.3
30259.1
30246.3
30179
30141.6
30093.8
30025
99997.5
99988.2
99958
99862.5
99605.3
98999.4
97761.3
95558.3
92247.3
87982.5
83213.4
78337.6
73663.6
69264.5
65204
61414.3
57975.4
54741.1
51851.9
49139.6
46688
44459.9
42429.2
40593
38941.9
37468.6
36174.2
35049.1
34066.5
33240
32560.1
31965.7
31536.2
31222.2
30958.3
30747.6
30642.5
30541.6
30437.4
30400.8
30387.6
30370.9
30354.6
30352.8
30350.6
30347.2
30332.8
30328.8
30323.9
30313.9
30312.1
30297
30249.2
30241.7
30260.5
30248.8
30180.9
30138.9
30082.3
29999.2
99997.5
99988.2
99958
99862.5
99605.3
98999.4
97761.3
95558.3
92247.3
87982.5
83213.4
78337.6
73663.6
69264.5
65204
61414.3
57975.4
54741.1
51851.9
49139.6
46688
44459.9
42429.2
40593
38941.9
37468.6
36174.2
35049.1
34066.5
33240
32560
31965.7
31536.2
31222.2
30958.2
30747.6
30642.4
30541.6
30437.3
30400.7
30387.5
30370.5
30354.2
30352.3
30350.7
30346.7
30332.5
30327.4
30321.7
30310.1
30307.8
30304.7
30264
30244.5
30261
30251.2
30177.8
30131.2
30078.8
29997
99997.5
99988.2
99958
99862.5
99605.3
98999.4
97761.3
95558.3
92247.3
87982.5
83213.4
78337.6
73663.6
69264.5
65204
61414.3
57975.4
54741.1
51851.9
49139.6
46688
44459.9
42429.2
40593
38941.9
37468.6
36174.2
35049.1
34066.5
33240
32560
31965.7
31536.1
31222.1
30958.2
30747.6
30642.4
30541.5
30437.3
30400.6
30387.3
30370.1
30353.8
30351.5
30350.3
30345.9
30333.7
30327.9
30322.1
30309.4
30306.5
30301.7
30274.6
30248.9
30264.8
30254.9
30184.1
30131.4
30061.5
29943.2
99997.5
99988.2
99958
99862.5
99605.3
98999.4
97761.3
95558.3
92247.3
87982.5