/*--------------------------------*- C++ -*----------------------------------*\
| =========                 |                                                 |
| \\      /  F ield         | OpenFOAM: The Open Source CFD Toolbox           |
|  \\    /   O peration     | Version:  5.x                                   |
|   \\  /    A nd           | Web:      www.OpenFOAM.org                      |
|    \\/     M anipulation  |                                                 |
\*---------------------------------------------------------------------------*/
/*   Windows 32 and 64 bit porting by blueCAPE: http://www.bluecape.com.pt   *\
|  Based on Windows porting (2.0.x v4) by Symscape: http://www.symscape.com   |
\*---------------------------------------------------------------------------*/
FoamFile
{
    version     2.0;
    format      ascii;
    class       volScalarField;
    location    "0.008";
    object      p_0;
}
// * * * * * * * * * * * * * * * * * * * * * * * * * * * * * * * * * * * * * //

dimensions      [1 -1 -2 0 0 0 0];

internalField   nonuniform List<scalar> 
10000
(
99997.5
99988.2
99958.1
99862.8
99606
99001
97764.4
95563.3
92254.2
87990.5
83221.7
78345.4
73670.7
69270.8
65209.5
61419.1
57979.6
54744.7
51855
49142.3
46690.2
44461.7
42430.6
40594.2
38942.8
37469.3
36174.8
35049.5
34066.7
33240.2
32560.1
31965.7
31536.4
31222.3
30958.5
30748.1
30643.2
30542.3
30438.3
30402.2
30390.1
30371.9
30356.1
30355.7
30353.8
30348.2
30340.8
30331.4
30329.2
30326.9
30324.7
30319.9
30289.4
30274.3
30280.3
30320.7
30295
30259.7
30264.5
30292.3
99997.5
99988.2
99958.1
99862.8
99606
99001
97764.4
95563.3
92254.2
87990.5
83221.7
78345.4
73670.7
69270.8
65209.5
61419.1
57979.6
54744.7
51855
49142.3
46690.2
44461.7
42430.6
40594.2
38942.8
37469.3
36174.8
35049.5
34066.7
33240.2
32560.1
31965.7
31536.4
31222.3
30958.5
30748.1
30643.2
30542.3
30438.3
30402.2
30390.1
30371.9
30356.2
30355.6
30353.4
30347.4
30341.2
30330.2
30327.9
30326.6
30324.4
30321.6
30292.4
30277.1
30283.4
30314
30286.5
30264.5
30269.3
30293.8
99997.5
99988.2
99958.1
99862.8
99606
99001
97764.4
95563.3
92254.2
87990.5
83221.7
78345.4
73670.7
69270.8
65209.5
61419.1
57979.6
54744.7
51855
49142.3
46690.2
44461.7
42430.6
40594.2
38942.8
37469.3
36174.8
35049.5
34066.7
33240.2
32560.1
31965.7
31536.4
31222.3
30958.5
30748.1
30643.2
30542.3
30438.3
30402.2
30390.1
30371.9
30356.3
30355.2
30352.7
30345.8
30342.3
30328.6
30326.2
30323.6
30319.3
30316.4
30312
30278
30281.5
30312.7
30285.1
30265.9
30270.2
30295.7
99997.5
99988.2
99958.1
99862.8
99606
99001
97764.4
95563.3
92254.2
87990.5
83221.7
78345.4
73670.7
69270.8
65209.5
61419.1
57979.6
54744.7
51855
49142.3
46690.2
44461.7
42430.6
40594.2
38942.8
37469.3
36174.8
35049.5
34066.7
33240.2
32560.1
31965.7
31536.4
31222.3
30958.5
30748.1
30643.2
30542.3
30438.3
30402.2
30390
30371.8
30356.3
30355.1
30352.1
30345.3
30342.6
30327.5
30324
30324.9
30319.5
30312.7
30314.6
30283.3
30280.9
30313
30284.7
30267.5
30270
30289.3
99997.5
99988.2
99958.1
99862.8
99606
99001
97764.4
95563.3
92254.2
87990.5
83221.7
78345.4
73670.7
69270.8
65209.5
61419.1
57979.6
54744.7
51855
49142.3
46690.2
44461.7
42430.6
40594.2
38942.8
37469.3
36174.8
35049.5
34066.7
33240.2
32560.1
31965.7
31536.4
31222.3
30958.5
30748.1
30643.2
30542.3
30438.3
30402.2
30389.9
30371.6
30356.3
30355
30351.8
30346.1
30342.5
30326.9
30322.5
30324.3
30320.9
30311.9
30314.2
30287.9
30280.6
30312.7
30285.9
30266.8
30272.4
30282
99997.5
99988.2
99958.1
99862.8
99606
99001
97764.4
95563.3
92254.2
87990.5
83221.7
78345.4
73670.7
69270.8
65209.5
61419.1
57979.6
54744.7
51855
49142.3
46690.2
44461.7
42430.6
40594.2
38942.8
37469.3
36174.8
35049.5
34066.7
33240.2
32560.1
31965.7
31536.4
31222.3
30958.5
30748.1
30643.2
30542.3
30438.3
30402.2
30389.8
30371.5
30356.3
30354.8
30351.6
30346.6
30342.6
30326.8
30322.2
30324.9
30321.9
30311.8
30313.5
30290.8
30279.9
30311.4
30287.5
30265.3
30271.8
30284.9
99997.5
99988.2
99958.1
99862.8
99606
99001
97764.4
95563.3
92254.2
87990.5
83221.7
78345.4
73670.7
69270.8
65209.5
61419.1
57979.6
54744.7
51855
49142.3
46690.2
44461.7
42430.6
40594.2
38942.8
37469.3
36174.8
35049.5
34066.7
33240.2
32560.1
31965.7
31536.4
31222.3
30958.5
30748.1
30643.2
30542.3
30438.3
30402.2
30389.8
30371.3
30356.2
30354.8
30351.6
30347
30342.5
30326.9
30322.4
30325.4
30322.4
30311.7
30312.5
30290.7
30278.2
30310.5
30287.3
30264.9
30270.5
30292.5
99997.5
99988.2
99958.1
99862.8
99606
99001
97764.4
95563.3
92254.2
87990.5
83221.7
78345.4
73670.7
69270.8
65209.5
61419.1
57979.6
54744.7
51855
49142.3
46690.2
44461.7
42430.6
40594.2
38942.8
37469.3
36174.8
35049.5
34066.7
33240.2
32560.1
31965.7
31536.4
31222.3
30958.5
30748.1
30643.2
30542.2
30438.3
30402.2
30389.8
30371.3
30356.3
30355
30351.9
30347.5
30341.6
30326.8
30322.7
30325.3
30322.5
30311.2
30311.6
30289.9
30276.4
30309.2
30289.3
30259.7
30263.3
30301.4
99997.5
99988.2
99958.1
99862.8
99606
99001
97764.4
95563.3
92254.2
87990.5
83221.7
78345.4
73670.7
69270.8
65209.5
61419.1
57979.6
54744.7
51855
49142.3
46690.2
44461.7
42430.6
40594.2
38942.8
37469.3
36174.8
35049.5
34066.7
33240.2
32560.1
31965.7
31536.4
31222.3
30958.5
30748
30643.2
30542.2
30438.3
30402.2
30389.8
30371.2
30356.3
30355.2
30351.9
30347.8
30340.4
30326.7
30322.6
30324.9
30322.3
30311.2
30311.9
30288.6
30276.1
30309.3
30290.9
30256.1
30256.9
30300.8
99997.5
99988.2
99958.1
99862.8
99606
99001
97764.4
95563.3
92254.2
87990.5
83221.7
78345.4
73670.7
69270.8
65209.5
61419.1
57979.6
54744.7
51855
49142.3
46690.2
44461.7
42430.6
40594.2
38942.8
37469.3
36174.8
35049.5
34066.7
33240.2
32560.1
31965.7
31536.4
31222.3
30958.5
30748
30643.2
30542.2
30438.3
30402.2
30389.7
30371.2
30356.3
30355.1
30352.1
30347.5
30340
30326.4
30322.4
30324.6
30321.6
30311.5
30313.4
30288.3
30277.1
30311.4
30291.9
30255
30254.8
30294.1
99997.5
99988.2
99958.1
99862.8
99606
99001
97764.4
95563.3
92254.2
87990.5
83221.7
78345.4
73670.7
69270.8
65209.5
61419.1
57979.6
54744.7
51855
49142.3
46690.2
44461.7
42430.6
40594.2
38942.8
37469.3
36174.8
35049.5
34066.7
33240.2
32560.1
31965.7
31536.4
31222.3
30958.5
30748
30643.2
30542.2
30438.3
30402.2
30389.8
30371.2
30356.2
30355.1
30352.3
30347.1
30340.2
30326.4
30322.4
30324.6
30321.3
30312.2
30315.3
30288.5
30277.9
30310.3
30291.2
30253.6
30254.1
30288.8
99997.5
99988.2
99958.1
99862.8
99606
99001
97764.4
95563.3
92254.2
87990.5
83221.7
78345.4
73670.7
69270.8
65209.5
61419.1
57979.6
54744.7
51855
49142.3
46690.2
44461.7
42430.6
40594.2
38942.8
37469.3
36174.8
35049.5
34066.7
33240.2
32560.1
31965.7
31536.4
31222.3
30958.5
30748
30643.1
30542.2
30438.3
30402.2
30389.8
30371.2
30356.3
30355.3
30352.6
30346.9
30340.5
30326.6
30322.3
30324.7
30321.8
30313.3
30316.3
30287.5
30277.7
30308.6
30285.1
30251.3
30251.1
30286.3
99997.5
99988.2
99958.1
99862.8
99606
99001
97764.4
95563.3
92254.2
87990.5
83221.7
78345.4
73670.7
69270.8
65209.5
61419.1
57979.6
54744.7
51855
49142.3
46690.2
44461.7
42430.6
40594.2
38942.8
37469.3
36174.8
35049.5
34066.7
33240.2
32560.1
31965.7
31536.4
31222.3
30958.5
30748
30643.1
30542.2
30438.3
30402.2
30389.8
30371.1
30356.3
30355.2
30352.7
30346.7
30341
30326.6
30322
30324.8
30322.2
30313.7
30315.4
30284.8
30276.9
30307.3
30279.9
30252.7
30246.7
30284.8
99997.5
99988.2
99958.1
99862.8
99606
99001
97764.4
95563.3
92254.2
87990.5
83221.7
78345.4
73670.7
69270.8
65209.5
61419.1
57979.6
54744.7
51855
49142.3
46690.2
44461.7
42430.6
40594.2
38942.8
37469.3
36174.8
35049.5
34066.7
33240.2
32560.1
31965.7
31536.4
31222.3
30958.5
30748
30643.1
30542.2
30438.3
30402.2
30389.9
30371.1
30356.3
30355.1
30352.7
30346.3
30341.8
30326.7
30321.9
30324.8
30321.8
30312.5
30313
30281.2
30275.6
30304.7
30275.9
30252.3
30246.2
30280
99997.5
99988.2
99958.1
99862.8
99606
99001
97764.4
95563.3
92254.2
87990.5
83221.7
78345.4
73670.7
69270.8
65209.5
61419.1
57979.6
54744.7
51855
49142.3
46690.2
44461.7
42430.6
40594.2
38942.8
37469.3
36174.8
35049.5
34066.7
33240.2
32560.1
31965.7
31536.4
31222.3
30958.5
30748
30643.1
30542.2
30438.3
30402.2
30389.9
30371.1
30356.4
30355.1
30352.7
30345.7
30341.9
30327.8
30321.9
30324.4
30320.4
30310.6
30310.5
30277.9
30273.6
30303.1
30271.9
30249.5
30243.1
30275.2
99997.5
99988.2
99958.1
99862.8
99606
99001
97764.4
95563.3
92254.2
87990.5
83221.7
78345.4
73670.7
69270.8
65209.5
61419.1
57979.6
54744.7
51855
49142.3
46690.2
44461.7
42430.6
40594.2
38942.8
37469.3
36174.8
35049.5
34066.7
33240.2
32560.1
31965.7
31536.4
31222.3
30958.5
30748
30643.1
30542.1
30438.3
30402.2
30389.9
30371.1
30356.5
30355.5
30353
30346.3
30341.8
30327.6
30322.2
30324
30319.2
30309.3
30308.1
30275.7
30273.5
30301.6
30273.8
30240.7
30237.8
30271.4
99997.5
99988.2
99958.1
99862.8
99606
99001
97764.4
95563.3
92254.2
87990.5
83221.7
78345.4
73670.7
69270.8
65209.5
61419.1
57979.6
54744.7
51855
49142.3
46690.2
44461.7
42430.6
40594.2
38942.8
37469.3
36174.8
35049.5
34066.7
33240.2
32560.1
31965.7
31536.4
31222.3
30958.5
30748
30643.1
30542.1
30438.2
30402.2
30389.9
30371.1
30356.7
30355.8
30353.6
30347.4
30340.9
30327.7
30323.1
30324.4
30318.8
30309.9
30306.7
30275
30274.2
30301.9
30275.7
30236.5
30233.5
30269.5
99997.5
99988.2
99958.1
99862.8
99606
99001
97764.4
95563.3
92254.2
87990.5
83221.7
78345.4
73670.7
69270.8
65209.5
61419.1
57979.6
54744.7
51855
49142.3
46690.2
44461.7
42430.6
40594.2
38942.8
37469.3
36174.8
35049.5
34066.7
33240.2
32560.1
31965.7
31536.4
31222.3
30958.5
30748
30643.1
30542.1
30438.2
30402.2
30389.9
30371.2
30356.7
30356.1
30354.1
30348.3
30339.9
30328.9
30324.5
30325
30319.7
30312.3
30305.8
30274.2
30274.3
30303
30272.6
30236.9
30234.5
30269.4
99997.5
99988.2
99958.1
99862.8
99606
99001
97764.4
95563.3
92254.2
87990.5
83221.7
78345.4
73670.7
69270.8
65209.5
61419.1
57979.6
54744.7
51855
49142.3
46690.2
44461.7
42430.6
40594.2
38942.8
37469.3
36174.8
35049.5
34066.7
33240.2
32560.1
31965.7
31536.4
31222.3
30958.5
30747.9
30643.1
30542.1
30438.2
30402.2
30389.9
30371.3
30356.8
30356.3
30354.5
30348.4
30340.5
30330.4
30325.4
30325
30320.9
30314.9
30303.6
30271.6
30272.7
30302.9
30271
30236.5
30236.2
30268.3
99997.5
99988.2
99958.1
99862.8
99606
99001
97764.4
95563.3
92254.2
87990.5
83221.7
78345.4
73670.7
69270.8
65209.5
61419.1
57979.6
54744.7
51855
49142.3
46690.2
44461.7
42430.6
40594.2
38942.8
37469.3
36174.8
35049.5
34066.7
33240.2
32560.1
31965.7
31536.4
31222.3
30958.5
30747.9
30643.1
30542.1
30438.2
30402.2
30389.9
30371.5
30356.9
30356.4
30354.5
30348.8
30341.3
30331.5
30325.7
30324.4
30322.4
30317.3
30299.2
30269
30269.7
30300.6
30271.3
30234.5
30232.7
30268.2
99997.5
99988.2
99958.1
99862.8
99606
99001
97764.4
95563.3
92254.2
87990.5
83221.7
78345.4
73670.7
69270.8
65209.5
61419.1
57979.6
54744.7
51855
49142.3
46690.2
44461.7
42430.6
40594.2
38942.8
37469.3
36174.8
35049.5
34066.7
33240.2
32560.1
31965.7
31536.4
31222.3
30958.4
30747.9
30643.1
30542.1
30438.2
30402.2
30389.8
30371.6
30356.9
30356.3
30354.5
30349.2
30341.8
30332.4
30326
30323.9
30322.5
30318.6
30294.8
30266.1
30266.8
30295.9
30269.3
30232.4
30227.8
30267.7
99997.5
99988.2
99958.1
99862.8
99606
99001
97764.4
95563.3
92254.2
87990.5
83221.7
78345.4
73670.7
69270.8
65209.5
61419.1
57979.6
54744.7
51855
49142.3
46690.2
44461.7
42430.6
40594.2
38942.8
37469.3
36174.8
35049.5
34066.7
33240.2
32560.1
31965.7
31536.4
31222.3
30958.4
30747.9
30643
30542.1
30438.2
30402.2
30389.8
30371.6
30356.9
30356.2
30354.4
30349.4
30342.6
30332.9
30326.3
30323.6
30322.1
30318.2
30291
30264.2
30264.1
30293.2
30267.7
30234.9
30227.7
30268.5
99997.5
99988.2
99958.1
99862.8
99606
99001
97764.4
95563.3
92254.2
87990.5
83221.7
78345.4
73670.7
69270.8
65209.5
61419.1
57979.6
54744.7
51855
49142.3
46690.2
44461.7
42430.6
40594.2
38942.8
37469.3
36174.8
35049.5
34066.7
33240.2
32560.1
31965.7
31536.4
31222.3
30958.4
30747.9
30643
30542
30438.2
30402.2
30389.8
30371.7
30356.9
30356.1
30354.3
30349.2
30343.3
30332.9
30326.4
30323.1
30321.4
30317.2
30288.1
30262.3
30262.5
30294.3
30268.8
30238.8
30233.3
30272.2
99997.5
99988.2
99958.1
99862.8
99606
99001
97764.4
95563.3
92254.2
87990.5
83221.7
78345.4
73670.7
69270.8
65209.5
61419.1
57979.6
54744.7
51855
49142.3
46690.2
44461.7
42430.6
40594.2
38942.8
37469.3
36174.8
35049.5
34066.7
33240.2
32560.1
31965.7
31536.4
31222.3
30958.4
30747.9
30643
30542
30438.2
30402.1
30389.7
30371.7
30356.9
30356.1
30354.1
30348.9
30343.9
30332.8
30326.5
30323
30320.3
30314.2
30285.4
30259.2
30260
30294
30266.3
30238.3
30232.1
30277.7
99997.5
99988.2
99958.1
99862.8
99606
99001
97764.4
95563.3
92254.2
87990.5
83221.7
78345.4
73670.7
69270.8
65209.5
61419.1
57979.6
54744.7
51855
49142.3
46690.2
44461.7
42430.6
40594.2
38942.8
37469.3
36174.8
35049.5
34066.7
33240.2
32560.1
31965.7
31536.4
31222.3
30958.4
30747.9
30643
30542
30438.2
30402.1
30389.7
30371.7
30357
30356
30354
30348.7
30343.9
30332.4
30326.2
30322.7
30319.2
30311.9
30283.7
30257.2
30259.8
30292.7
30262.5
30231.8
30220.4
30270.7
99997.5
99988.2
99958.1
99862.8
99606
99001
97764.4
95563.3
92254.2
87990.5
83221.7
78345.4
73670.7
69270.8
65209.5
61419.1
57979.6
54744.7
51855
49142.3
46690.2
44461.7
42430.6
40594.2
38942.8
37469.3
36174.8
35049.5
34066.7
33240.2
32560.1
31965.7
31536.4
31222.3
30958.4
30747.9
30643
30542
30438.1
30402.1
30389.7
30371.8
30357
30355.9
30353.9
30349
30343
30331.8
30325.8
30321.4
30318
30311.2
30282.7
30257.7
30262.2
30293.8
30261.8
30232
30207.4
30243.1
99997.5
99988.2
99958.1
99862.8
99606
99001
97764.4
95563.3
92254.2
87990.5
83221.7
78345.4
73670.7
69270.8
65209.5
61419.1
57979.6
54744.7
51855
49142.3
46690.2
44461.7
42430.6
40594.2
38942.8
37469.3
36174.8
35049.5
34066.7
33240.2
32560.1
31965.7
31536.4
31222.3
30958.4
30747.9
30643
30542
30438.1
30402.1
30389.6
30371.8
30357
30355.7
30353.8
30348.7
30342.3
30331
30325.4
30320.4
30317.3
30311
30282.1
30258.3
30262.8
30294.3
30260.1
30240.1
30205.7
30211.2
99997.5
99988.2
99958.1
99862.8
99606
99001
97764.4
95563.3
92254.2
87990.5
83221.7
78345.4
73670.7
69270.8
65209.5
61419.1
57979.6
54744.7
51855
49142.3
46690.2
44461.7
42430.6
40594.2
38942.8
37469.3
36174.8
35049.5
34066.7
33240.2
32560.1
31965.7
31536.4
31222.3
30958.4
30747.9
30643
30542
30438.1
30402
30389.6
30371.8
30357
30355.7
30353.7
30348.4
30341.5
30330.6
30325.5
30319.3
30316
30310.7
30281.3
30258
30261.9
30290.5
30255.2
30239.9
30219.4
30192
99997.5
99988.2
99958.1
99862.8
99606
99001
97764.4
95563.3
92254.2
87990.5
83221.7
78345.4
73670.7
69270.8
65209.5
61419.1
57979.6
54744.7
51855
49142.3
46690.2
44461.7
42430.6
40594.2
38942.8
37469.3
36174.8
35049.5
34066.7
33240.2
32560.1
31965.7
31536.4
31222.3
30958.4
30747.9
30643
30542
30438.1
30402
30389.5
30371.9
30357
30355.8
30353.6
30348.5
30340.3
30330.2
30325.3
30318.6
30314.2
30309.8
30280.6
30257.1
30261.8
30287
30253.3
30231.6
30226.8
30190.4
99997.5
99988.2
99958.1
99862.8
99606
99001
97764.4
95563.3
92254.2
87990.5
83221.7
78345.4
73670.7
69270.8
65209.5
61419.1
57979.6
54744.7
51855
49142.3
46690.2
44461.7
42430.6
40594.2
38942.8
37469.3
36174.8
35049.5
34066.7
33240.2
32560.1
31965.7
31536.4
31222.3
30958.4
30747.9
30643
30542
30438.1
30402
30389.5
30371.9
30357
30355.7
30353.7
30348.8
30339.1
30329.7
30324.7
30317.4
30313.7
30309.2
30278.8
30255.2
30261.7
30285
30249.5
30224.7
30219.1
30204
99997.5
99988.2
99958.1
99862.8
99606
99001
97764.4
95563.3
92254.2
87990.5
83221.7
78345.4
73670.7
69270.8
65209.5
61419.1
57979.6
54744.7
51855
49142.3
46690.2
44461.7
42430.6
40594.2
38942.8
37469.3
36174.8
35049.5
34066.7
33240.2
32560.1
31965.7
31536.4
31222.2
30958.4
30747.9
30643
30541.9
30438.1
30401.9
30389.4
30371.9
30356.9
30355.7
30353.6
30349.1
30338.3
30329.7
30324.6
30315.8
30313.3
30310.1
30278.1
30254.3
30260.7
30282.7
30243.7
30217.6
30212.2
30215.4
99997.5
99988.2
99958.1
99862.8
99606
99001
97764.4
95563.3
92254.2
87990.5
83221.7
78345.4
73670.7
69270.8
65209.5
61419.1
57979.6
54744.7
51855
49142.3
46690.2
44461.7
42430.6
40594.2
38942.8
37469.3
36174.8
35049.5
34066.7
33240.2
32560.1
31965.7
31536.4
31222.2
30958.4
30747.8
30643
30541.9
30438.1
30401.9
30389.4
30371.8
30356.9
30355.5
30353.5
30349.2
30337.6
30329.5
30324.7
30315.9
30312.5
30310.2
30278
30254.5
30261.5
30282.7
30241.2
30211.3
30204.7
30224.2
99997.5
99988.2
99958.1
99862.8
99606
99001
97764.4
95563.3
92254.2
87990.5
83221.7
78345.4
73670.7
69270.8
65209.5
61419.1
57979.6
54744.7
51855
49142.3
46690.2
44461.7
42430.6
40594.2
38942.8
37469.3
36174.8
35049.5
34066.7
33240.2
32560.1
31965.7
31536.4
31222.2
30958.4
30747.8
30643
30541.9
30438.1
30401.9
30389.3
30371.8
30356.8
30355.3
30353.4
30349.4
30337.1
30329.3
30324.4
30316
30313
30309.9
30276
30254
30261.4
30284.7
30242.3
30205.4
30191.8
30232.6
99997.5
99988.2
99958.1
99862.8
99606
99001
97764.4
95563.3
92254.2
87990.5
83221.7
78345.4
73670.7
69270.8
65209.5
61419.1
57979.6
54744.7
51855
49142.3
46690.2
44461.7
42430.6
40594.2
38942.8
37469.3
36174.8
35049.5
34066.7
33240.2
32560.1
31965.7
31536.4
31222.2
30958.4
30747.8
30642.9
30541.9
30438.1
30401.8
30389.3
30371.8
30356.7
30355.1
30353.3
30349.5
30336.6
30329.3
30324.1
30315.3
30313.9
30310.9
30273
30253.2
30260.7
30284.6
30245
30203.9
30182.1
30226.2
99997.5
99988.2
99958.1
99862.8
99606
99001
97764.4
95563.3
92254.2
87990.5
83221.7
78345.4
73670.7
69270.8
65209.5
61419.1
57979.6
54744.7
51855
49142.3
46690.2
44461.7
42430.6
40594.2
38942.8
37469.3
36174.8
35049.5
34066.7
33240.2
32560.1
31965.7
31536.4
31222.2
30958.4
30747.8
30642.9
30541.9
30438
30401.8
30389.2
30371.7
30356.6
30354.9
30353.2
30349.3
30336.3
30329.2
30323.9
30315
30314.7
30311.5
30268.8
30251.5
30260.1
30281.9
30242.8
30209.7
30181.1
30209.1
99997.5
99988.2
99958.1
99862.8
99606
99001
97764.4
95563.3
92254.2
87990.5
83221.7
78345.4
73670.7
69270.8
65209.5
61419.1
57979.6
54744.7
51855
49142.3
46690.2
44461.7
42430.6
40594.2
38942.8
37469.3
36174.8
35049.5
34066.7
33240.2
32560.1
31965.7
31536.4
31222.2
30958.4
30747.8
30642.9
30541.9
30438
30401.8
30389.1
30371.6
30356.4
30354.7
30353.1
30348.8
30336.4
30329.2
30323.9
30315.1
30315.6
30311.6
30264.9
30250.7
30259.9
30281
30237.5
30210.9
30183.4
30197.5
99997.5
99988.2
99958.1
99862.8
99606
99001
97764.4
95563.3
92254.2
87990.5
83221.7
78345.4
73670.7
69270.8
65209.5
61419.1
57979.6
54744.7
51855
49142.3
46690.2
44461.7
42430.6
40594.2
38942.8
37469.3
36174.8
35049.5
34066.7
33240.2
32560.1
31965.7
31536.4
31222.2
30958.4
30747.8
30642.9
30541.9
30438
30401.8
30389.1
30371.5
30356.2
30354.5
30352.7
30348.2
30337
30329.3
30324.1
30315.3
30316.4
30311.1
30261.8
30250.9
30260
30281.2
30236.2
30210.8
30182.7
30190.5
99997.5
99988.2
99958.1
99862.8
99606
99001
97764.4
95563.3
92254.2
87990.5
83221.7
78345.4
73670.7
69270.8
65209.5
61419.1
57979.6
54744.7
51855
49142.3
46690.2
44461.7
42430.6
40594.2
38942.8
37469.3
36174.8
35049.5
34066.7
33240.2
32560.1
31965.7
31536.4
31222.2
30958.4
30747.8
30642.9
30541.9
30438
30401.7
30389
30371.4
30356.1
30354.3
30352.1
30347.8
30337.7
30329.5
30324.4
30315.8
30317.1
30310.6
30260.3
30251.4
30260.6
30280.8
30236.1
30213.4
30185.3
30183.2
99997.5
99988.2
99958.1
99862.8
99606
99001
97764.4
95563.3
92254.2
87990.5
83221.7
78345.4
73670.7
69270.8
65209.5
61419.1
57979.6
54744.7
51855
49142.3
46690.2
44461.7
42430.6
40594.2
38942.8
37469.3
36174.8
35049.5
34066.7
33240.2
32560.1
31965.7
31536.4
31222.2
30958.4
30747.8
30642.9
30541.9
30438
30401.7
30388.9
30371.4
30355.9
30354.1
30351.6
30347.5
30338.3
30329.6
30324.7
30316.4
30317.1
30309.4
30259.4
30250.9
30260.6
30279.4
30235
30212.8
30186.9
30183.5
99997.5
99988.2
99958.1
99862.8
99606
99001
97764.4
95563.3
92254.2
87990.5
83221.7
78345.4
73670.7
69270.8
65209.5
61419.1
57979.6
54744.7
51855
49142.3
46690.2
44461.7
42430.6
40594.2
38942.8
37469.3
36174.8
35049.5
34066.7
33240.2
32560.1
31965.7
31536.4
31222.2
30958.3
30747.8
30642.9
30541.9
30438
30401.7
30388.9
30371.3
30355.7
30354
30351.1
30347.3
30338.9
30329.9
30325
30317
30317
30307.8
30258.5
30249.2
30259.1
30275.8
30231.6
30209.3
30183.7
30186.5
99997.5
99988.2
99958.1
99862.8
99606
99001
97764.4
95563.3
92254.2
87990.5
83221.7
78345.4
73670.7
69270.8
65209.5
61419.1
57979.6
54744.7
51855
49142.3
46690.2
44461.7
42430.6
40594.2
38942.8
37469.3
36174.8
35049.5
34066.7
33240.2
32560.1
31965.7
31536.4
31222.2
30958.3
30747.8
30642.9
30541.9
30438
30401.7
30388.8
30371.2
30355.5
30353.8
30350.7
30347.2
30339.3
30330.1
30325
30317.6
30317
30305.7
30256.7
30247.4
30257.7
30271.7
30224.8
30201.7
30180.5
30187.8
99997.5
99988.2
99958.1
99862.8
99606
99001
97764.4
95563.3
92254.2
87990.5
83221.7
78345.4
73670.7
69270.8
65209.5
61419.1
57979.6
54744.7
51855
49142.3
46690.2
44461.7
42430.6
40594.2
38942.8
37469.3
36174.8
35049.5
34066.7
33240.2
32560.1
31965.7
31536.4
31222.2
30958.3
30747.8
30642.9
30541.9
30438
30401.6
30388.8
30371.2
30355.4
30353.7
30350.3
30347.3
30339.4
30330.3
30325.1
30317.9
30316.8
30303.8
30255
30246.3
30256.7
30268.9
30219.5
30195.6
30174.7
30187.4
99997.5
99988.2
99958.1
99862.8
99606
99001
97764.4
95563.3
92254.2
87990.5
83221.7
78345.4
73670.7
69270.8
65209.5
61419.1
57979.6
54744.7
51855
49142.3
46690.2
44461.7
42430.6
40594.2
38942.8
37469.3
36174.8
35049.5
34066.7
33240.2
32560.1
31965.7
31536.4
31222.2
30958.3
30747.8
30642.9
30541.8
30438
30401.6
30388.8
30371.2
30355.2
30353.5
30349.9
30347.5
30339.3
30330.4
30325.3
30318.2
30316.4
30302.7
30254.1
30245.8
30256.8
30268.5
30217.1
30192.1
30165.7
30186.7
99997.5
99988.2
99958.1
99862.8
99606
99001
97764.4
95563.3
92254.2
87990.5
83221.7
78345.4
73670.7
69270.8
65209.5
61419.1
57979.6
54744.7
51855
49142.3
46690.2
44461.7
42430.6
40594.2
38942.8
37469.3
36174.8
35049.5
34066.7
33240.2
32560.1
31965.7
31536.4
31222.2
30958.3
30747.8
30642.9
30541.8
30438
30401.6
30388.7
30371.1
30355
30353.4
30349.7
30347.6
30339.1
30330.5
30325.6
30318.1
30316
30302.4
30254.3
30245.6
30258
30269.1
30217.1
30193
30159.2
30185.2
99997.5
99988.2
99958.1
99862.8
99606
99001
97764.4
95563.3
92254.2
87990.5
83221.7
78345.4
73670.7
69270.8
65209.5
61419.1
57979.6
54744.7
51855
49142.3
46690.2
44461.7
42430.6
40594.2
38942.8
37469.3
36174.8
35049.5
34066.7
33240.2
32560.1
31965.7
31536.4
31222.2
30958.3
30747.8
30642.9
30541.8
30437.9
30401.6
30388.7
30371.1
30354.9
30353.2
30349.5
30347.6
30338.9
30330.6
30325.8
30318
30315.8
30302.5
30255
30245.6
30259.2
30269.2
30217.7
30197.7
30158
30181.9
99997.5
99988.2
99958.1
99862.8
99606
99001
97764.4
95563.3
92254.2
87990.5
83221.7
78345.4
73670.7
69270.8
65209.5
61419.1
57979.6
54744.7
51855
49142.3
46690.2
44461.7
42430.6
40594.2
38942.8
37469.3
36174.8
35049.5
34066.7
33240.2
32560.1
31965.7
31536.4
31222.2
30958.3
30747.8
30642.9
30541.8
30437.9
30401.6
30388.7
30371.1
30354.7
30353.1
30349.3
30347.6
30338.7
30330.7
30326
30317.8
30315.6
30302.5
30255.6
30245.5
30259.5
30268.2
30217.4
30201.6
30161.2
30175.7
99997.5
99988.2
99958.1
99862.8
99606
99001
97764.4
95563.3
92254.2
87990.5
83221.7
78345.4
73670.7
69270.8
65209.5
61419.1
57979.6
54744.7
51855
49142.3
46690.2
44461.7
42430.6
40594.2
38942.8
37469.3
36174.8
35049.5
34066.7
33240.2
32560.1
31965.7
31536.4
31222.2
30958.3
30747.8
30642.9
30541.8
30437.9
30401.6
30388.7
30371.1
30354.6
30353
30349.2
30347.6
30338.4
30330.8
30326.1
30317.6
30315.5
30302.6
30255.9
30245.4
30259.6
30267
30216.2
30202.2
30165.3
30166.9
99997.5
99988.2
99958.1
99862.8
99606
99001
97764.4
95563.3
92254.2
87990.5
83221.7
78345.4
73670.7
69270.8
65209.5
61419.1
57979.6
54744.7
51855
49142.3
46690.2
44461.7
42430.6
40594.2
38942.8
37469.3
36174.8
35049.5
34066.7
33240.2
32560.1
31965.7
31536.4
31222.2
30958.3
30747.8
30642.9
30541.8
30437.9
30401.6
30388.6
30371.1
30354.5
30352.9
30349.1
30347.5
30338.1
30330.7
30326.1
30317.5
30315.4
30302.4
30255.8
30245.5
30259.9
30266.4
30215.7
30200.2
30166.2
30159.2
99997.5
99988.2
99958.1
99862.8
99606
99001
97764.4
95563.3
92254.2
87990.5
83221.7
78345.4
73670.7
69270.8
65209.5
61419.1
57979.6
54744.7
51855
49142.3
46690.2
44461.7
42430.6
40594.2
38942.8
37469.3
36174.8
35049.5
34066.7
33240.2
32560.1
31965.7
31536.3
31222.2
30958.3
30747.8
30642.8
30541.8
30437.9
30401.5
30388.6
30371.2
30354.4
30352.8
30349.1
30347.5
30337.8
30330.6
30326
30317.5
30315.1
30301.9
30255.4
30245.9
30260.4
30266.1
30214.2
30196.2
30164.6
30151.7
99997.5
99988.2
99958.1
99862.8
99606
99001
97764.4
95563.3
92254.2
87990.5
83221.7
78345.4
73670.7
69270.8
65209.5
61419.1
57979.6
54744.7
51855
49142.3
46690.2
44461.7
42430.6
40594.2
38942.8
37469.3
36174.8
35049.5
34066.7
33240.2
32560.1
31965.7
31536.3
31222.2
30958.3
30747.8
30642.8
30541.8
30437.9
30401.5
30388.6
30371.2
30354.3
30352.8
30349.1
30347.4
30337.5
30330.6
30325.8
30317.5
30314.8
30301.2
30255
30246.1
30260.6
30265.2
30212.6
30191.9
30160.1
30141.6
99997.5
99988.2
99958.1
99862.8
99606
99001
97764.4
95563.3
92254.2
87990.5
83221.7
78345.4
73670.7
69270.8
65209.5
61419.1
57979.6
54744.7
51855
49142.3
46690.2
44461.7
42430.6
40594.2
38942.8
37469.3
36174.8
35049.5
34066.7
33240.2
32560.1
31965.7
31536.3
31222.2
30958.3
30747.8
30642.8
30541.8
30437.9
30401.5
30388.6
30371.2
30354.2
30352.6
30349.3
30346.8
30337
30330.5
30325.2
30317.4
30314
30299.9
30253.3
30245.5
30261
30262.3
30208.4
30182.4
30147.1
30094.4
99997.5
99988.2
99958.1
99862.8
99606
99001
97764.4
95563.3
92254.2
87990.5
83221.7
78345.4
73670.7
69270.8
65209.5
61419.1
57979.6
54744.7
51855
49142.3
46690.2
44461.7
42430.6
40594.2
38942.8
37469.3
36174.8
35049.5
34066.7
33240.2
32560.1
31965.7
31536.3
31222.2
30958.3
30747.7
30642.8
30541.8
30437.8
30401.4
30388.5
30371.3
30354
30352.3
30348.4
30346.1
30336.3
30329.9
30324.3
30316.9
30314.3
30301.3
30254.7
30245.7
30265
30262.1
30203.2
30181.3
30144.7
30056.6
99997.5
99988.2
99958.1
99862.8
99606
99001
97764.4
95563.3
92254.2
87990.5
83221.7
78345.4
73670.7
69270.8
65209.5
61419.1
57979.6
54744.7
51855
49142.3
46690.2
44461.7
42430.6
40594.2
38942.8
37469.3
36174.8
35049.5
34066.7
33240.2
32560.1
31965.7
31536.3
31222.2
30958.3
30747.7
30642.8
30541.7
30437.8
30401.4
30388.5
30371.3
30354
30352.3
30348.2
30346
30335.3
30329.8
30324.5
30316.2
30314.5
30299.4
30252.9
30245.5
30268.7
30265.3
30198.6
30155.8
30102.4
30055
99997.5
99988.2
99958.1
99862.8
99606
99001
97764.4
95563.3
92254.2
87990.5
83221.7
78345.4
73670.7
69270.8
65209.5
61419.1
57979.6
54744.7
51855
49142.3
46690.2
44461.7
42430.6
40594.2
38942.8
37469.3
36174.8
35049.5
34066.7
33240.2
32560.1
31965.7
31536.3
31222.2
30958.3
30747.7
30642.8
30541.7
30437.7
30401.3
30388.4
30371.3
30354
30352.4
30348.6
30346.1
30335.4
30330
30325
30316.2
30313.1
30295.9
30253.3
30247.8
30269.8
30262.4
30198.4
30160
30107
30046.5
99997.5
99988.2
99958.1
99862.8
99606
99001
97764.4
95563.3
92254.2
87990.5
83221.7
78345.4
73670.7
69270.8
65209.5
61419.1
57979.6
54744.7
51855
49142.3
46690.2
44461.7
42430.6
40594.2
38942.8
37469.3
36174.8
35049.5
34066.7
33240.2
32560.1
31965.7
31536.3
31222.1
30958.2
30747.7
30642.7
30541.6
30437.6
30401.2
30388.3
30371.4
30354.1
30352.8
30349.2
30346.8
30335.8
30330.6
30325.2
30314.8
30309
30292.3
30252.9
30245.4
30269.5
30256.1
30199.7
30170.5
30136.1
30053.1
99997.5
99988.2
99958.1
99862.8
99606
99001
97764.4
95563.3
92254.2
87990.5
83221.7
78345.4
73670.7
69270.8
65209.5
61419.1
57979.6
54744.7
51855
49142.3
46690.2
44461.7
42430.6
40594.2
38942.8
37469.3
36174.8
35049.5
34066.7
33240.2
32560.1
31965.7
31536.3
31222.1
30958.2
30747.7
30642.7
30541.6
30437.6
30401.2
30388.2
30371.4
30354.2
30353.1
30349.8
30347.5
30335.5
30330.5
30324.9
30314.2
30305.8
30289.3
30254.2
30246
30269.4
30253.8
30204
30182.7
30154.5
30007.8
99997.5
99988.2
99958.1
99862.8
99606
99001
97764.4
95563.3
92254.2
87990.5
83221.7
78345.4
73670.7
69270.8
65209.5
61419.1
57979.6
54744.7
51855
49142.3
46690.2
44461.7
42430.6
40594.2
38942.8
37469.3
36174.8
35049.5
34066.7
33240.2
32560.1
31965.7
31536.3
31222.1
30958.2
30747.6
30642.7
30541.6
30437.5
30401.1
30388
30371.4
30354.3
30352.9
30350.4
30347.8
30334.3
30329.5
30324.4
30313.2
30305.8
30289.4
30252.8
30245.3
30266.3
30251.9
30192.2
30157.5
30106.2
30023.9
99997.5
99988.2
99958.1
99862.8
99606
99001
97764.4
95563.3
92254.2
87990.5
83221.7
78345.4
73670.7
69270.8
65209.5
61419.1
57979.6
54744.7
51855
49142.3
46690.2
44461.7
42430.6
40594.2
38942.8
37469.3
36174.8
35049.5
34066.7
33240.2
32560
31965.7
31536.3
31222.1
30958.2
30747.6
30642.6
30541.5
30437.5
30401
30387.8
30371.4
30354.6
30352.9
30350.5
30347.8
30333.6
30328.9
30323.5
30311.7
30307.9
30291.6
30249.5
30242
30262.9
30245.8
30183.4
30148.6
30101.1
30028.6
99997.5
99988.2
99958.1
99862.8
99606
99001
97764.4
95563.3
92254.2
87990.5
83221.7
78345.4
73670.7
69270.8
65209.5
61419.1
57979.6
54744.7
51855
49142.3
46690.2
44461.7
42430.6
40594.2
38942.8
37469.3
36174.8
35049.5
34066.7
33240.2
32560
31965.6
31536.3
31222.1
30958.2
30747.6
30642.6
30541.5
30437.4
30400.9
30387.7
30371.2
30354.8
30352.9
30350.6
30347.4
30333.1
30329
30323.7
30312.1
30309.1
30294.6
30248.1
30240.2
30261.5
30243.4
30179.1
30142.8
30096.9
30026.4
99997.5
99988.2
99958.1
99862.8
99606
99001
97764.4
95563.3
92254.2
87990.5
83221.7
78345.4
73670.7
69270.8
65209.5
61419.1
57979.6
54744.7
51855
49142.3
46690.2
44461.7
42430.6
40594.2
38942.8
37469.3
36174.8
35049.5
34066.7
33240.2
32560
31965.6
31536.3
31222.1
30958.1
30747.6
30642.6
30541.4
30437.3
30400.8
30387.6
30370.9
30354.7
30352.8
30350.7
30347.2
30332.5
30328.8
30324.1
30314.1
30312.1
30296.4
30249.2
30242.7
30262.8
30245.9
30180.7
30139.7
30084.5
30000.8
99997.5
99988.2
99958.1
99862.8
99606
99001
97764.4
95563.3
92254.2
87990.5
83221.7
78345.4
73670.7
69270.8
65209.5
61419.1
57979.6
54744.7
51855
49142.3
46690.2
44461.7
42430.6
40594.2
38942.8
37469.3
36174.8
35049.5
34066.7
33240.2
32560
31965.6
31536.3
31222.1
30958.1
30747.5
30642.5
30541.4
30437.3
30400.7
30387.4
30370.5
30354.3
30352.4
30350.8
30346.7
30332.2
30327.4
30321.8
30310.3
30308.2
30305.4
30262.5
30245.4
30263.4
30248.5
30177.4
30132.2
30082
29998
99997.5
99988.2
99958.1
99862.8
99606
99001
97764.4
95563.3
92254.2
87990.5
83221.7
78345.4
73670.7
69270.8
65209.5
61419.1
57979.6
54744.7
51855
49142.3
46690.2
44461.7
42430.6
40594.2
38942.8
37469.3
36174.8
35049.5
34066.7
33240.2
32560
31965.6
31536.2
31222
30958.1
30747.5
30642.5