/*--------------------------------*- C++ -*----------------------------------*\
| =========                 |                                                 |
| \\      /  F ield         | OpenFOAM: The Open Source CFD Toolbox           |
|  \\    /   O peration     | Version:  5.x                                   |
|   \\  /    A nd           | Web:      www.OpenFOAM.org                      |
|    \\/     M anipulation  |                                                 |
\*---------------------------------------------------------------------------*/
/*   Windows 32 and 64 bit porting by blueCAPE: http://www.bluecape.com.pt   *\
|  Based on Windows porting (2.0.x v4) by Symscape: http://www.symscape.com   |
\*---------------------------------------------------------------------------*/
FoamFile
{
    version     2.0;
    format      ascii;
    class       surfaceScalarField;
    location    "0.008";
    object      phi;
}
// * * * * * * * * * * * * * * * * * * * * * * * * * * * * * * * * * * * * * //

dimensions      [1 0 -1 0 0 0 0];

internalField   nonuniform List<scalar> 
19740
(
0.000383764
-5.37348e-013
0.00143678
-3.11751e-013
0.00480716
4.5608e-013
0.0144643
1.13154e-012
0.0381192
9.03277e-013
0.088703
7.41629e-013
0.182729
3.47278e-013
0.332754
1.12088e-012
0.534321
6.74127e-013
0.766831
-7.4829e-013
1.00382
-6.56364e-013
1.22624
-9.0794e-013
1.4263
1.93179e-013
1.6024
2.37366e-013
1.75578
2.44693e-013
1.88793
6.92779e-014
2.00301
-4.49418e-013
2.09762
3.25961e-013
2.18101
8.63754e-014
2.25261
5.64992e-013
2.30221
1.78402e-012
2.34894
1.17537e-011
2.3953
3.05361e-011
2.42431
2.60781e-010
2.43613
6.18439e-010
2.44772
3.63879e-009
2.46774
9.40926e-009
2.48723
3.62489e-008
2.4935
9.45082e-008
2.48776
2.70925e-007
2.47586
6.72477e-007
2.46519
1.52408e-006
2.47023
3.28244e-006
2.48227
6.18218e-006
2.48683
1.10375e-005
2.48536
1.90329e-005
2.48454
3.18982e-005
2.47204
4.48677e-005
2.45845
6.26268e-005
2.44974
7.14232e-005
2.44609
0.00016168
2.4456
0.000279017
2.45304
0.000285244
2.46886
0.000388029
2.48026
0.000609746
2.48768
0.000786233
2.48892
0.000922704
2.49137
0.00126235
2.49387
0.00106999
2.48974
0.000603924
2.46779
8.43746e-005
2.37527
2.66821e-005
2.18405
0.000535552
2.02622
0.00148397
1.92044
0.00150195
1.82472
0.00139404
1.72495
0.00284186
1.67339
0.00248427
1.63279
0.00257049
0.00304609
0.000371364
-5.96412e-013
0.00139035
-6.63469e-013
0.00465183
2.83551e-012
0.013997
2.79821e-012
0.0368875
4.35207e-013
0.0858368
1.29008e-012
0.176824
3.92575e-013
0.322002
1.59606e-012
0.517056
6.5592e-013
0.742053
-2.61213e-012
0.97138
-4.27214e-013
1.18662
-1.4988e-012
1.38021
-2.95319e-014
1.55062
6.00631e-013
1.69905
9.07274e-013
1.82693
3.40616e-013
1.93829
-2.12053e-013
2.02984
7.8626e-013
2.11054
6.36824e-013
2.17982
1.03828e-012
2.22782
3.189e-012
2.27304
2.33806e-011
2.3179
6.01384e-011
2.34598
5.11883e-010
2.35742
1.21566e-009
2.36863
7.1414e-009
2.38801
1.84978e-008
2.40687
7.11941e-008
2.41293
1.85917e-007
2.40737
5.32312e-007
2.39586
1.32292e-006
2.38553
2.99492e-006
2.39041
6.45523e-006
2.40206
1.21567e-005
2.40647
2.17057e-005
2.40505
3.7396e-005
2.40426
6.25588e-005
2.39216
8.84263e-005
2.37901
0.000123291
2.37059
0.000138745
2.36705
0.000298866
2.36657
0.000508745
2.37379
0.000551617
2.38909
0.000817703
2.40028
0.0011476
2.40772
0.00164058
2.40849
0.00201044
2.41065
0.00274349
2.41263
0.00258906
2.40956
0.00188279
2.38839
0.00102119
2.30022
0.000740324
2.11271
0.000125895
1.958
0.00257632
1.85774
0.00385933
1.77091
0.00426965
1.67334
0.00426167
1.62024
0.00455735
1.58205
0.0051509
0.00519095
0.000359364
-1.39e-013
0.00134543
-1.33182e-012
0.00450152
3.37463e-012
0.0135447
1.85674e-012
0.0356956
-3.15303e-013
0.0830633
2.22267e-012
0.171111
1.30695e-012
0.311598
2.06768e-012
0.500348
3.05977e-013
0.718076
-1.73772e-012
0.939992
-8.20677e-013
1.14828
-1.34737e-012
1.33562
-5.52225e-013
1.50052
1.20748e-012
1.64415
8.51097e-013
1.7679
9.09051e-013
1.87566
-2.48912e-013
1.96425
1.37268e-012
2.04234
1.14375e-012
2.10939
1.87339e-012
2.15584
5.07405e-012
2.1996
3.42852e-011
2.24301
8.82702e-011
2.27018
7.50678e-010
2.28124
1.78948e-009
2.29209
1.04946e-008
2.31084
2.72534e-008
2.3291
1.04744e-007
2.33496
2.74214e-007
2.32958
7.83637e-007
2.31844
1.95139e-006
2.30845
4.41016e-006
2.31317
9.51725e-006
2.32445
1.79233e-005
2.32872
3.1997e-005
2.32734
5.5067e-005
2.32657
9.1935e-005
2.31487
0.000130014
2.30214
0.000182498
2.29399
0.000204409
2.29057
0.000411569
2.29012
0.000710771
2.2971
0.000814388
2.31206
0.0010944
2.32318
0.00142012
2.3312
0.00228144
2.33268
0.00340429
2.33307
0.00369617
2.33528
0.0032064
2.33232
0.00213559
2.31236
0.00213622
2.23007
0.00250819
2.04918
0.00175931
1.89535
0.00354695
1.79653
0.00565746
1.71388
0.00653245
1.62069
0.00654419
1.56952
0.00676441
1.53103
0.00678438
0.00770646
0.000347752
3.98348e-013
0.00130195
-2.64944e-012
0.00435607
3.76588e-012
0.013107
9.64118e-013
0.0345422
-3.72147e-013
0.0803793
1.86784e-012
0.165582
1.32028e-012
0.301529
3.46301e-012
0.484181
-5.22249e-013
0.694873
-6.05294e-013
0.909619
-1.3145e-013
1.11118
-1.97176e-012
1.29246
-5.02265e-013
1.45203
1.72218e-012
1.59102
1.47216e-012
1.71077
5.6577e-013
1.81505
1.60094e-013
1.90078
1.17106e-012
1.97635
1.4444e-012
2.04123
2.27063e-012
2.08618
6.22147e-012
2.12852
4.40521e-011
2.17053
1.1517e-010
2.19682
9.77619e-010
2.20753
2.33947e-009
2.21803
1.36885e-008
2.23618
3.56666e-008
2.25384
1.36831e-007
2.25951
3.594e-007
2.25431
1.02454e-006
2.24353
2.55804e-006
2.23386
5.76823e-006
2.23843
1.24686e-005
2.24934
2.34822e-005
2.25347
4.19077e-005
2.25214
7.20399e-005
2.25139
0.000119866
2.24007
0.000170029
2.22776
0.000239094
2.21986
0.000272971
2.21656
0.000492527
2.21614
0.000887114
2.22291
0.00105109
2.23759
0.00133179
2.24808
0.00173558
2.25662
0.00286651
2.25838
0.00392227
2.25805
0.00395074
2.26091
0.00352802
2.25983
0.0030588
2.237
0.00328061
2.15586
0.00397473
1.99216
0.00373257
1.83754
0.00509206
1.73769
0.00682649
1.65849
0.00760171
1.56936
0.00862378
1.51836
0.00918485
1.48212
0.00919085
0.0103399
0.000336516
1.53744e-012
0.00125988
-3.63665e-012
0.00421531
3.32756e-012
0.0126835
4.15668e-013
0.0334261
2.91767e-013
0.0777821
1.64446e-012
0.160232
1.41354e-012
0.291786
3.83249e-012
0.468536
-4.56968e-013
0.672421
-2.367e-013
0.880228
-4.02789e-013
1.07527
-2.12808e-012
1.2507
-9.21929e-013
1.40511
2.19402e-012
1.53961
1.98264e-012
1.6555
2.81108e-013
1.75641
2.47136e-013
1.83937
1.99041e-012
1.91249
1.39977e-012
1.97527
2.71716e-012
2.01877
7.47802e-012
2.05975
5.29832e-011
2.1004
1.40231e-010
2.12584
1.19153e-009
2.1362
2.86426e-009
2.14636
1.6717e-008
2.16392
4.37327e-008
2.18101
1.67415e-007
2.1865
4.41485e-007
2.18147
1.25481e-006
2.17104
3.14312e-006
2.16168
7.06841e-006
2.1661
1.53095e-005
2.17666
2.88364e-005
2.18066
5.14327e-005
2.17937
8.83218e-005
2.17865
0.000146209
2.16769
0.000209013
2.15578
0.000290487
2.14813
0.000346153
2.14494
0.000552389
2.14455
0.00105911
2.15112
0.00128265
2.16539
0.00164406
2.17539
0.00215081
2.1839
0.00347796
2.18471
0.00363923
2.18507
0.00376171
2.18765
0.00386647
2.18749
0.0040445
2.16463
0.00453268
2.08493
0.00525276
1.9307
0.00533967
1.78022
0.00671875
1.68061
0.00821684
1.60535
0.00897926
1.51775
0.00974717
1.46744
0.0108601
1.43543
0.0117103
0.0120677
0.000325642
3.22986e-012
0.00121917
-4.33209e-012
0.00407911
2.90301e-012
0.0122737
2.10498e-013
0.032346
-3.73035e-013
0.0752688
1.75593e-012
0.155054
5.33351e-013
0.282358
4.47997e-012
0.453397
-8.93952e-013
0.650693
1.26121e-013
0.851786
-7.86926e-013
1.04053
-1.47349e-012
1.21029
-9.00169e-013
1.35971
2.55906e-012
1.48987
1.05005e-012
1.602
8.49099e-013
1.69965
5.68878e-013
1.77993
1.9087e-012
1.85069
1.62959e-012
1.91145
2.7216e-012
1.95354
8.46234e-012
1.99319
6.18081e-011
2.03253
1.64461e-010
2.05715
1.39204e-009
2.06718
3.36426e-009
2.07701
1.9576e-008
2.094
5.14481e-008
2.11054
1.96472e-007
2.11585
5.20489e-007
2.11098
1.47436e-006
2.10089
3.70689e-006
2.09183
8.3105e-006
2.09611
1.80414e-005
2.10633
3.39869e-005
2.11019
6.0577e-005
2.10895
0.000103905
2.10825
0.000170955
2.09765
0.000246778
2.08612
0.000338037
2.07872
0.000416703
2.07563
0.000611724
2.07526
0.00123945
2.0816
0.0015325
2.09543
0.00188496
2.10522
0.00243362
2.11384
0.0037723
2.11353
0.00350778
2.11404
0.00388186
2.11647
0.00442048
2.11701
0.00483766
2.09476
0.00539916
2.01703
0.00611288
1.86988
0.00682316
1.72415
0.00852052
1.626
0.00981985
1.55352
0.0104796
1.46845
0.0116332
1.42014
0.0124921
1.38922
0.0128855
0.0136709
0.00031512
5.28289e-012
0.00117978
-4.63629e-012
0.0039473
2.9674e-012
0.0118771
6.09734e-013
0.0313008
-1.39888e-013
0.0728367
7.10987e-013
0.150044
5.00044e-013
0.273234
5.03553e-012
0.438747
-7.82041e-013
0.629668
2.14051e-013
0.824263
-9.81437e-013
1.0069
-1.27409e-012
1.17118
-1.23812e-012
1.31578
2.35278e-012
1.44173
5.4956e-013
1.55024
1.37423e-012
1.64473
6.70353e-013
1.72242
2.41918e-012
1.79089
2.07745e-012
1.84968
3.15126e-012
1.89041
9.72489e-012
1.92879
6.9841e-011
1.96685
1.873e-010
1.99068
1.57906e-009
2.00038
3.83859e-009
2.00989
2.22646e-008
2.02634
5.88134e-008
2.04234
2.23996e-007
2.04749
5.96438e-007
2.04277
1.68322e-006
2.033
4.24971e-006
2.02424
9.49482e-006
2.02838
2.06662e-005
2.03827
3.89382e-005
2.04201
6.93382e-005
2.0408
0.000118802
2.04013
0.000194101
2.02987
0.000283217
2.01872
0.000381165
2.01156
0.000485243
2.00856
0.000684507
2.00822
0.00138714
2.01433
0.0017639
2.02763
0.00200513
2.03703
0.00262442
2.04538
0.00369434
2.04486
0.00372382
2.04563
0.00435014
2.04805
0.00505142
2.04899
0.00561488
2.02712
0.00621547
1.95128
0.007164
1.81029
0.00872261
1.66897
0.0101686
1.57295
0.0109158
1.50361
0.0114294
1.42169
0.013293
1.37363
0.0147086
1.34493
0.0152932
0.0156689
0.000304938
7.51754e-012
0.00114166
-5.09193e-012
0.00381976
2.03659e-012
0.0114933
1.00098e-012
0.0302894
6.6569e-013
0.0704832
6.80345e-013
0.145196
3.85914e-013
0.264406
5.78604e-012
0.42457
-3.39284e-013
0.609322
4.25437e-013
0.797629
1.43885e-013
0.97437
-1.88516e-012
1.13334
-5.10703e-013
1.27326
1.50946e-012
1.39514
7.30083e-013
1.50015
1.46327e-012
1.59159
7.4496e-013
1.66676
2.30838e-012
1.73303
1.94844e-012
1.78992
3.44347e-012
1.82933
1.0222e-011
1.86646
7.73472e-011
1.9033
2.08968e-010
1.92635
1.75252e-009
1.93575
4.28763e-009
1.94495
2.47828e-008
1.96086
6.58303e-008
1.97635
2.49998e-007
1.98133
6.69363e-007
1.97676
1.88148e-006
1.96731
4.77191e-006
1.95883
1.06224e-005
1.96284
2.31851e-005
1.97241
4.36948e-005
1.97603
7.77229e-005
1.97486
0.000133004
1.97421
0.000215721
1.96428
0.000318202
1.95349
0.000419664
1.94656
0.000550988
1.94367
0.00076241
1.94335
0.00148907
1.94925
0.00195489
1.96191
0.00223437
1.97078
0.00291143
1.97834
0.00357422
1.97792
0.00406847
1.97944
0.00504253
1.98184
0.0057941
1.98306
0.00639238
1.96208
0.00719906
1.88823
0.00838955
1.75149
0.0106111
1.61422
0.0118899
1.52105
0.0123338
1.45388
0.0133823
1.37374
0.0141649
1.32774
0.0162911
1.30067
0.0184099
0.0182275
0.000295085
8.61888e-012
0.00110477
-4.87521e-012
0.00369633
1.67066e-012
0.011122
9.70779e-013
0.0293107
1.49925e-012
0.0682057
5.05818e-013
0.140504
2.77112e-013
0.255862
6.35936e-012
0.410851
-1.93179e-013
0.589634
8.68638e-013
0.771856
-1.20348e-013
0.942886
-1.77458e-012
1.09672
-3.44613e-013
1.23212
1.0818e-012
1.35006
6.83009e-013
1.45167
1.76126e-012
1.54016
5.20473e-013
1.61291
2.39497e-012
1.67703
1.97486e-012
1.73208
3.3602e-012
1.77022
1.10292e-011
1.80615
8.41995e-011
1.8418
2.28865e-010
1.86411
1.9131e-009
1.8732
4.7116e-009
1.8821
2.71339e-008
1.8975
7.2503e-008
1.91249
2.74499e-007
1.91731
7.39304e-007
1.91289
2.06934e-006
1.90374
5.27391e-006
1.89554
1.16943e-005
1.89941
2.56005e-005
1.90867
4.82608e-005
1.91218
8.57372e-005
1.91105
0.000146519
1.91042
0.000235962
1.90081
0.000350926
1.89037
0.000455567
1.88367
0.000612671
1.88088
0.000834713
1.88057
0.00157442
1.8863
0.00212398
1.89837
0.00248635
1.90691
0.00321863
1.91387
0.00369256
1.91335
0.00465944
1.91527
0.00577076
1.91768
0.00651757
1.91891
0.00720883
1.89919
0.00818739
1.82803
0.0096433
1.69517
0.0121103
1.56212
0.0129154
1.47219
0.0136611
1.40609
0.015127
1.32806
0.0162996
1.28477
0.0177132
1.25638
0.0198045
0.0209807
0.00028555
9.48663e-012
0.00106907
-5.33795e-012
0.0035769
2.37321e-012
0.0107626
3.79252e-013
0.0283636
2.32259e-012
0.0660018
1.08802e-013
0.135964
9.9476e-014
0.247595
6.70619e-012
0.397576
1.15463e-013
0.570581
9.04166e-013
0.746916
3.21076e-013
0.912419
-8.15792e-013
1.06128
-3.71259e-013
1.19231
5.88862e-013
1.30644
1.34426e-012
1.40477
1.60782e-012
1.4904
4.89386e-013
1.56079
1.86806e-012
1.62284
2.08389e-012
1.67611
3.43348e-012
1.71302
1.20357e-011
1.74779
9.02416e-011
1.78229
2.47738e-010
1.80388
2.06052e-009
1.81267
5.11105e-009
1.82129
2.93206e-008
1.83619
7.88368e-008
1.85069
2.97531e-007
1.85535
8.06303e-007
1.85108
2.24705e-006
1.84223
5.75609e-006
1.83429
1.27122e-005
1.83804
2.79155e-005
1.847
5.26376e-005
1.85039
9.33984e-005
1.8493
0.000159337
1.84869
0.000254929
1.83939
0.000381311
1.82929
0.000489597
1.8228
0.000668849
1.82012
0.000895946
1.8198
0.00166867
1.82537
0.00229709
1.83707
0.00279881
1.84525
0.00332325
1.85168
0.00382396
1.85136
0.00525835
1.85337
0.00633461
1.85579
0.00714171
1.85686
0.00791717
1.83792
0.00896192
1.7698
0.0105284
1.64093
0.0126599
1.51194
0.0136757
1.42531
0.0146702
1.36141
0.0164292
1.28601
0.0182046
1.24538
0.0194538
1.21607
0.0212953
0.022757
0.000276323
1.04894e-011
0.00103453
-6.42153e-012
0.00346132
2.21423e-012
0.0104148
9.14824e-014
0.0274471
1.94422e-012
0.0638692
-2.52243e-013
0.131571
5.33795e-013
0.239594
7.15561e-012
0.384729
9.36584e-013
0.552145
7.60725e-013
0.722781
1.04627e-012
0.882937
-1.31939e-012
1.02699
3.91687e-013
1.15378
1.09557e-012
1.26422
8.94396e-013
1.35938
1.30496e-012
1.44224
4.10116e-013
1.51036
1.81966e-012
1.5704
1.98441e-012
1.62196
3.55249e-012
1.65767
1.26132e-011
1.69132
9.59042e-011
1.7247
2.65393e-010
1.74559
2.19528e-009
1.7541
5.48628e-009
1.76244
3.13487e-008
1.77686
8.48377e-008
1.79089
3.19134e-007
1.7954
8.70408e-007
1.79127
2.4149e-006
1.7827
6.21888e-006
1.77502
1.36777e-005
1.77865
3.01325e-005
1.78732
5.6831e-005
1.7906
0.000100713
1.78954
0.000171475
1.78895
0.000272712
1.77996
0.000409245
1.77019
0.000521467
1.76391
0.00072375
1.76131
0.000955959
1.76101
0.00175606
1.7664
0.00243638
1.77774
0.00304505
1.7856
0.00339114
1.79156
0.00398556
1.79165
0.00571661
1.79354
0.00663937
1.79601
0.00752097
1.7969
0.00833401
1.77855
0.0093538
1.71288
0.0113211
1.58769
0.0130387
1.46308
0.0141893
1.37961
0.0155973
1.31845
0.0179648
1.24521
0.0203996
1.20668
0.0212034
1.17803
0.0227419
0.0244951
0.000267395
1.24274e-011
0.0010011
-6.23501e-012
0.00334948
1.84563e-012
0.0100783
-2.46914e-013
0.0265603
1.64313e-012
0.0618054
-3.55271e-015
0.12732
1.19016e-013
0.231853
7.16138e-012
0.372298
2.56417e-012
0.534304
1.09424e-012
0.699427
1.04539e-012
0.854407
-1.38023e-012
0.993802
-1.55875e-013
1.1165
6.65246e-013
1.22337
7.53175e-013
1.31545
1.67977e-012
1.39564
6.30163e-013
1.46156
1.672e-012
1.51966
1.93401e-012
1.56955
3.53939e-012
1.60411
1.30902e-011
1.63667
1.00818e-010
1.66897
2.81484e-010
1.68918
2.31844e-009
1.69742
5.83792e-009
1.70549
3.32228e-008
1.71945
9.05145e-008
1.73303
3.39354e-007
1.73739
9.31673e-007
1.73339
2.57323e-006
1.7251
6.6627e-006
1.71766
1.45928e-005
1.72118
3.22545e-005
1.72957
6.08451e-005
1.73274
0.000107695
1.73172
0.000182944
1.73115
0.000289363
1.72245
0.000435115
1.71299
0.000550381
1.70692
0.000776364
1.7044
0.00102698
1.70411
0.00183743
1.70933
0.00256448
1.72043
0.00327847
1.72787
0.00370404
1.73347
0.00424692
1.73399
0.00585005
1.73571
0.00686368
1.7382
0.00765761
1.73893
0.00852604
1.72118
0.00960863
1.6577
0.0118148
1.53656
0.0134402
1.41656
0.0147388
1.33595
0.0169811
1.27744
0.0194086
1.20534
0.0219912
1.1667
0.0227098
1.14082
0.0248762
0.0263152
0.000258754
1.28315e-011
0.000968753
-6.05738e-012
0.00324125
5.3646e-013
0.00975264
1.55431e-013
0.0257021
1.33138e-012
0.0598084
-1.37668e-013
0.123206
-4.16556e-013
0.224361
8.27871e-012
0.360268
2.83551e-012
0.517039
1.2701e-012
0.676827
1.1311e-012
0.8268
-7.62501e-013
0.96169
3.59712e-014
1.08042
5.39568e-013
1.18384
8.27338e-013
1.27295
1.35314e-012
1.35054
7.53397e-013
1.41433
1.40132e-012
1.47056
1.76126e-012
1.51883
3.48144e-012
1.55228
1.35527e-011
1.58378
1.05214e-010
1.61504
2.96493e-010
1.6346
2.4297e-009
1.64257
6.16675e-009
1.65038
3.49495e-008
1.66389
9.58752e-008
1.67703
3.58242e-007
1.68125
9.90155e-007
1.67738
2.72239e-006
1.66936
7.08802e-006
1.66216
1.54595e-005
1.66556
3.42846e-005
1.67368
6.4685e-005
1.67676
0.000114351
1.67577
0.000193772
1.67521
0.000304968
1.66679
0.000458789
1.65764
0.000577565
1.65177
0.00082388
1.64933
0.00110956
1.64905
0.00190815
1.65409
0.002707
1.6648
0.00365162
1.67208
0.00426864
1.67747
0.00469797
1.67847
0.00553819
1.67994
0.00693131
1.68227
0.00776179
1.68292
0.00878147
1.6656
0.00998611
1.60437
0.0119193
1.48714
0.0141075
1.37135
0.015937
1.29336
0.0187743
1.23666
0.0207032
1.16726
0.0227666
1.12836
0.0240981
1.10374
0.0269748
0.0282491
0.000250394
1.29221e-011
0.000937451
-5.87796e-012
0.00313652
-2.34479e-013
0.00943752
6.34159e-013
0.0248716
1.07114e-012
0.0578758
-2.66454e-014
0.119225
1.05693e-013
0.217111
8.72102e-012
0.348627
3.02114e-012
0.500333
1.25233e-012
0.654957
8.15792e-013
0.800084
-7.75824e-013
0.930616
2.1938e-013
1.04551
4.88498e-013
1.14559
1.61737e-012
1.23182
1.03295e-012
1.3069
8.9595e-013
1.36863
1.14531e-012
1.42304
1.7879e-012
1.46975
3.64864e-012
1.50212
1.44638e-011
1.53261
1.09172e-010
1.56286
3.1042e-010
1.58179
2.5307e-009
1.5895
6.47411e-009
1.59706
3.65358e-008
1.61012
1.0093e-007
1.62284
3.75853e-007
1.62693
1.04592e-006
1.62318
2.86276e-006
1.61542
7.49529e-006
1.60845
1.62797e-005
1.61174
3.62261e-005
1.6196
6.83547e-005
1.62258
0.000120694
1.62162
0.000203982
1.62108
0.000319583
1.61294
0.000480551
1.60408
0.000601896
1.5984
0.000867711
1.59604
0.00120213
1.59576
0.00199079
1.60063
0.00282554
1.61086
0.00393544
1.61844
0.00465686
1.62352
0.00527039
1.62529
0.0056147
1.62601
0.00685301
1.6282
0.00796866
1.6287
0.00910758
1.61177
0.0105116
1.55294
0.0122878
1.43809
0.0151222
1.32712
0.017285
1.25223
0.0204895
1.19665
0.0221043
1.13033
0.0236002
1.0932
0.0258798
1.06713
0.0292002
0.03078
0.000242303
1.25988e-011
0.00090716
-5.88862e-012
0.00303517
-9.01501e-013
0.00913257
1.42109e-014
0.0240679
1.26477e-012
0.0560057
2.84217e-014
0.115372
9.13047e-013
0.210096
9.11893e-012
0.337362
2.94609e-012
0.484166
1.22924e-012
0.633794
1.27853e-012
0.774232
-3.33511e-013
0.900545
-4.00124e-013
1.01173
2.42029e-013
1.10858
2.16938e-012
1.19201
1.30518e-012
1.26467
7.52731e-013
1.32441
1.20681e-012
1.37706
1.88272e-012
1.42226
3.65286e-012
1.45358
1.4774e-011
1.48309
1.12036e-010
1.51236
3.23549e-010
1.53068
2.62084e-009
1.53814
6.76026e-009
1.54545
3.79885e-008
1.5581
1.05688e-007
1.5704
3.92245e-007
1.57436
1.09903e-006
1.57073
2.99474e-006
1.56322
7.88498e-006
1.55648
1.70556e-005
1.55967
3.80816e-005
1.56727
7.18611e-005
1.57015
0.000126732
1.56922
0.0002136
1.5687
0.000333297
1.56082
0.0005004
1.55225
0.000624053
1.54676
0.000908404
1.54447
0.00129771
1.54419
0.00209267
1.54889
0.00295949
1.55903
0.00380735
1.56711
0.00452831
1.57169
0.00558195
1.57412
0.00673341
1.57364
0.00704462
1.57591
0.00812953
1.57632
0.00951246
1.55987
0.0111073
1.50363
0.012939
1.39055
0.0157458
1.28393
0.0181832
1.21307
0.0211536
1.15824
0.0227831
1.09466
0.0250532
1.05889
0.0290372
1.03082
0.0320676
0.0332231
0.000234473
1.17275e-011
0.000877847
-6.09202e-012
0.0029371
-1.68576e-012
0.00883748
-6.55476e-013
0.0232902
1.25056e-012
0.0541961
-1.05693e-013
0.111644
1.44151e-012
0.203307
9.1589e-012
0.326461
3.55005e-012
0.468521
8.21565e-013
0.613315
1.25544e-012
0.749215
-2.15383e-013
0.871447
-7.01661e-013
0.979039
5.63993e-014
1.07275
1.75771e-012
1.1535
1.28608e-012
1.22381
1.05072e-012
1.28161
1.16795e-012
1.33256
2.07212e-012
1.37631
3.92686e-012
1.40661
1.53395e-011
1.43517
1.15454e-010
1.46349
3.35103e-010
1.48122
2.70176e-009
1.48844
7.0263e-009
1.49551
3.9315e-008
1.50775
1.1016e-007
1.51966
4.07475e-007
1.52349
1.14955e-006
1.51998
3.11871e-006
1.51271
8.25757e-006
1.50619
1.77894e-005
1.50927
3.98541e-005
1.51663
7.52086e-005
1.51941
0.000132477
1.51852
0.000222651
1.51802
0.000346203
1.51039
0.000518216
1.5021
0.000645206
1.49678
0.000946848
1.49457
0.00138946
1.4943
0.00220242
1.49884
0.00309553
1.5086
0.0037936
1.51635
0.00457641
1.52067
0.00591555
1.52234
0.00769958
1.52288
0.00705243
1.52534
0.00806949
1.52554
0.00989699
1.50974
0.0115984
1.45615
0.0135498
1.34433
0.0162214
1.2417
0.018405
1.17443
0.0211975
1.11975
0.0237174
1.05863
0.0269836
1.02556
0.0306291
0.996644
0.033743
0.0371306
0.000226897
1.13349e-011
0.000849482
-5.74296e-012
0.00284219
-1.94778e-012
0.00855192
-1.21592e-012
0.0225377
1.03739e-012
0.0524449
-6.88338e-013
0.108037
1.33493e-012
0.196738
9.00435e-012
0.315912
4.40892e-012
0.453382
7.96696e-013
0.593497
9.87654e-013
0.725006
-6.39933e-013
0.843289
-4.08562e-013
0.947404
-2.16716e-013
1.03809
1.58229e-012
1.11622
9.83658e-013
1.18426
1.48237e-012
1.2402
1.30562e-012
1.2895
2.0024e-012
1.33184
4.0461e-012
1.36116
1.57534e-011
1.38879
1.17868e-010
1.4162
3.46195e-010
1.43335
2.77348e-009
1.44034
7.27323e-009
1.44719
4.05225e-008
1.45903
1.14358e-007
1.47056
4.21604e-007
1.47426
1.19757e-006
1.47086
3.23507e-006
1.46383
8.61352e-006
1.45752
1.84833e-005
1.4605
4.15459e-005
1.46762
7.84039e-005
1.47032
0.00013794
1.46945
0.000231167
1.46897
0.00035834
1.46158
0.000534257
1.45356
0.000665611
1.44842
0.000981931
1.44628
0.00148387
1.44603
0.00228987
1.45046
0.00321742
1.45986
0.00405078
1.46696
0.00507545
1.47097
0.00640883
1.47177
0.00786144
1.47349
0.00721762
1.47606
0.00788652
1.4759
0.00974346
1.46124
0.0116766
1.40996
0.0138433
1.2991
0.016608
1.20106
0.0183304
1.13716
0.0207456
1.08371
0.0246888
1.02414
0.0284223
0.992827
0.0315037
0.964145
0.0349492
0.0397049
0.000219566
9.52838e-012
0.000822034
-6.52189e-012
0.00275036
-1.75238e-012
0.00827559
-2.16271e-012
0.0218094
5.57776e-013
0.0507503
-4.80505e-013
0.104546
1.27987e-012
0.190381
9.35341e-012
0.305705
4.36362e-012
0.438733
5.58664e-013
0.57432
1.00364e-013
0.701579
-3.10862e-013
0.81604
-5.29798e-013
0.916792
8.92619e-014
1.00455
1.44862e-012
1.08016
1.73195e-012
1.146
1.38112e-012
1.20013
1.50946e-012
1.24784
1.98597e-012
1.2888
4.20486e-012
1.31718
1.60776e-011
1.34392
1.20245e-010
1.37044
3.56587e-010
1.38704
2.83694e-009
1.3938
7.50168e-009
1.40043
4.16183e-008
1.41189
1.18292e-007
1.42304
4.34692e-007
1.42662
1.24315e-006
1.42334
3.34423e-006
1.41653
8.95337e-006
1.41043
1.9139e-005
1.41331
4.31611e-005
1.4202
8.14492e-005
1.42281
0.000143136
1.42197
0.000239168
1.4215
0.000369764
1.41436
0.000548714
1.4066
0.000685322
1.40162
0.00101445
1.39956
0.00157357
1.39932
0.00235325
1.40364
0.00330636
1.41279
0.00436799
1.41948
0.00570982
1.42323
0.00695193
1.42419
0.007602
1.42577
0.00752747
1.42822
0.00784907
1.42768
0.00940181
1.41439
0.0116888
1.36535
0.014064
1.2556
0.0170975
1.16268
0.0181771
1.10096
0.0204977
1.04943
0.0255297
0.991565
0.0301328
0.961972
0.0325538
0.933578
0.0365179
0.041229
0.000212471
8.19611e-012
0.000795472
-6.88516e-012
0.00266149
-1.39e-012
0.00800819
-2.72937e-012
0.0211047
6.83897e-013
0.0491104
-1.2701e-013
0.101168
7.45182e-013
0.184229
9.12159e-012
0.295827
4.63807e-012
0.424556
5.00933e-013
0.555762
5.15143e-014
0.67891
-2.15827e-013
0.789672
-3.3662e-013
0.887168
-2.30482e-013
0.97209
2.20401e-012
1.04525
1.67333e-012
1.10897
1.39755e-012
1.16135
1.49081e-012
1.20752
2.10365e-012
1.24716
4.16245e-012
1.27462
1.64946e-011
1.30049
1.22157e-010
1.32616
3.65864e-010
1.34222
2.89263e-009
1.34877
7.71276e-009
1.35518
4.26096e-008
1.36627
1.21974e-007
1.37706
4.46795e-007
1.38053
1.28638e-006
1.37735
3.44656e-006
1.37076
9.27757e-006
1.36485
1.97588e-005
1.36764
4.47017e-005
1.37431
8.4352e-005
1.37684
0.000148074
1.37602
0.000246688
1.37557
0.000380518
1.36866
0.000561656
1.36115
0.0007046
1.35633
0.0010444
1.35434
0.00165341
1.35411
0.00240442
1.3583
0.00336877
1.36727
0.00454026
1.37345
0.00622132
1.37746
0.00733024
1.37824
0.00775738
1.37969
0.0080043
1.38169
0.00826329
1.3808
0.00936333
1.36891
0.011766
1.32205
0.0144059
1.21403
0.0174467
1.12594
0.0182734
1.06548
0.0208243
1.01648
0.0261758
0.960409
0.0311248
0.93194
0.0342799
0.905238
0.038391
0.0436099
0.000205606
6.11955e-012
0.000769769
-7.52287e-012
0.00257549
-1.1422e-012
0.00774943
-3.01714e-012
0.0204228
1.0294e-012
0.0475236
-2.65565e-013
0.0978989
5.0715e-013
0.178277
9.18554e-012
0.286268
4.45777e-012
0.410838
4.51195e-013
0.537805
2.62013e-013
0.656973
1.33227e-015
0.764156
-1.31894e-013
0.858502
-7.86038e-014
0.940679
2.41451e-012
1.01148
1.17328e-012
1.07314
1.51612e-012
1.12382
1.37534e-012
1.1685
2.20668e-012
1.20686
4.33298e-012
1.23343
1.67779e-011
1.25847
1.23947e-010
1.28331
3.74013e-010
1.29885
2.94115e-009
1.30518
7.90731e-009
1.31139
4.35027e-008
1.32212
1.25415e-007
1.33256
4.57972e-007
1.33592
1.32734e-006
1.33284
3.54245e-006
1.32647
9.58665e-006
1.32075
2.03444e-005
1.32345
4.61706e-005
1.3299
8.71186e-005
1.33235
0.000152763
1.33156
0.000253748
1.33112
0.000390635
1.32444
0.000573441
1.31717
0.000722753
1.31251
0.00107287
1.31059
0.00171736
1.31037
0.0024456
1.31444
0.00342541
1.32304
0.00470051
1.32895
0.00656045
1.33305
0.00769476
1.33375
0.008281
1.33515
0.00862682
1.33695
0.00891307
1.33593
0.00989218
1.32475
0.0122059
1.27949
0.0146887
1.17379
0.0175466
1.08987
0.0189793
1.0304
0.0221302
0.983649
0.0274943
0.929459
0.0322377
0.901303
0.0366565
0.876884
0.0408611
0.0457101
0.000198962
4.5226e-012
0.000744896
-7.75291e-012
0.00249227
-4.83169e-013
0.00749903
-3.43725e-012
0.0197629
6.13731e-013
0.045988
-6.24389e-013
0.0947356
5.84421e-013
0.172516
9.29123e-012
0.277018
4.4329e-012
0.397563
-1.3145e-013
0.520427
2.27374e-013
0.635745
7.90479e-014
0.739465
2.62901e-013
0.830762
-3.55271e-015
0.910284
2.2462e-012
0.978797
1.27942e-012
1.03846
1.15019e-012
1.08751
1.33271e-012
1.13074
2.45448e-012
1.16786
4.21019e-012
1.19358
1.72453e-011
1.21781
1.25254e-010
1.24184
3.81441e-010
1.25688
2.98316e-009
1.26301
8.08649e-009
1.26902
4.43052e-008
1.2794
1.28626e-007
1.2895
4.68279e-007
1.29275
1.3661e-006
1.28978
3.63226e-006
1.28361
9.8811e-006
1.27807
2.08979e-005
1.28069
4.75701e-005
1.28693
8.97541e-005
1.2893
0.000157216
1.28854
0.000260383
1.28811
0.00040013
1.28164
0.000584235
1.27461
0.00073994
1.2701
0.00109818
1.26825
0.00176917
1.26804
0.0024838
1.27197
0.0034957
1.28023
0.0049139
1.286
0.00686413
1.28998
0.00809462
1.29064
0.00872538
1.292
0.00916515
1.29368
0.00960291
1.29268
0.0108654
1.28194
0.0128261
1.23827
0.0150942
1.13527
0.0179898
1.055
0.0198154
0.997328
0.0236592
0.952495
0.0287371
0.899756
0.0335624
0.870883
0.0384406
0.850089
0.043395
0.0467089
0.000192533
2.9674e-012
0.000720827
-7.78222e-012
0.00241174
-4.79616e-013
0.00725672
-3.74989e-012
0.0191243
-4.20108e-013
0.044502
-6.01297e-013
0.0916744
1.07914e-012
0.166942
1.03402e-011
0.268067
4.67093e-012
0.384717
-2.6823e-013
0.503611
4.39648e-013
0.615202
-2.50022e-013
0.715571
6.59472e-013
0.803918
-3.57048e-013
0.880871
1.69997e-012
0.94717
1.55387e-012
1.00491
1.09335e-012
1.05237
1.48459e-012
1.09421
2.30482e-012
1.13013
4.20552e-012
1.15501
1.75389e-011
1.17846
1.26183e-010
1.20172
3.88735e-010
1.21627
3.01878e-009
1.2222
8.25135e-009
1.22801
4.50231e-008
1.23806
1.3162e-007
1.24784
4.77771e-007
1.25098
1.40275e-006
1.2481
3.71635e-006
1.24213
1.01614e-005
1.23678
2.1421e-005
1.23931
4.89038e-005
1.24535
9.22615e-005
1.24764
0.000161447
1.2469
0.000266606
1.24649
0.000409057
1.24023
0.000594145
1.23343
0.000756033
1.22907
0.00112043
1.22728
0.00181591
1.22708
0.00250894
1.23086
0.00357039
1.23882
0.00516715
1.24437
0.00720553
1.24844
0.00851232
1.24895
0.00894797
1.25031
0.00963633
1.25186
0.010325
1.25094
0.0117077
1.24062
0.0133531
1.19811
0.0156076
1.09857
0.0186949
1.02143
0.0207832
0.965405
0.0250087
0.921976
0.0297764
0.871535
0.0331502
0.843342
0.0392058
0.823404
0.045162
0.0463801
0.000186312
1.53655e-012
0.000697535
-8.02203e-012
0.00233381
-7.54952e-014
0.00702224
-3.93197e-012
0.0185064
-1.02229e-012
0.0430641
-4.85834e-013
0.0887123
1.03295e-012
0.161548
1.01972e-011
0.259405
4.26237e-012
0.372286
-4.88498e-013
0.487338
5.76428e-013
0.595324
-1.57208e-013
0.692449
1.78524e-013
0.777942
-2.13163e-013
0.852408
1.55165e-012
0.916565
1.95088e-012
0.972435
8.91731e-013
1.01837
1.48281e-012
1.05885
2.2351e-012
1.09361
4.19176e-012
1.11769
1.80678e-011
1.14038
1.2725e-010
1.16289
3.94869e-010
1.17697
3.04912e-009
1.18271
8.40212e-009
1.18833
4.56628e-008
1.19806
1.34406e-007
1.20752
4.865e-007
1.21056
1.43737e-006
1.20777
3.79506e-006
1.202
1.04282e-005
1.19681
2.19155e-005
1.19926
5.01733e-005
1.20511
9.46493e-005
1.20732
0.000165457
1.20661
0.000272463
1.20621
0.000417428
1.20016
0.000603265
1.19357
0.000771131
1.18935
0.00114087
1.18763
0.00185811
1.18743
0.00252005
1.19108
0.00364825
1.19875
0.00542168
1.20421
0.00741222
1.20835
0.00874079
1.20874
0.00923797
1.20996
0.0101099
1.21138
0.0109823
1.21046
0.0124956
1.20047
0.0140957
1.15905
0.0164823
1.0631
0.0193092
0.988443
0.0222863
0.934097
0.0265888
0.891831
0.0308697
0.843878
0.0331696
0.817324
0.0402495
0.797237
0.0457255
0.0463872
0.000180292
6.52811e-013
0.000674996
-8.34444e-012
0.0022584
-2.56684e-013
0.00679533
-4.4631e-012
0.0179084
-1.4122e-012
0.0416726
-4.60965e-013
0.0858458
5.81757e-013
0.156328
9.89164e-012
0.251023
3.73035e-012
0.360257
-1.01785e-012
0.471591
6.68798e-013
0.576088
-5.24913e-013
0.670075
4.85834e-013
0.752805
-6.41265e-013
0.824865
2.09166e-012
0.886949
2.20446e-012
0.941013
9.99645e-013
0.98546
1.79545e-012
1.02464
2.21068e-012
1.05827
3.80851e-012
1.08158
1.84204e-011
1.10353
1.27902e-010
1.12531
4.00659e-010
1.13894
3.07441e-009
1.14449
8.54012e-009
1.14993
4.62303e-008
1.15934
1.36995e-007
1.1685
4.94515e-007
1.17144
1.47005e-006
1.16875
3.86872e-006
1.16316
1.06818e-005
1.15814
2.23829e-005
1.16051
5.13824e-005
1.16617
9.69194e-005
1.16831
0.000169265
1.16762
0.000277966
1.16724
0.000425269
1.16138
0.000611757
1.15501
0.000785294
1.15093