/*--------------------------------*- C++ -*----------------------------------*\
| =========                 |                                                 |
| \\      /  F ield         | OpenFOAM: The Open Source CFD Toolbox           |
|  \\    /   O peration     | Version:  5.x                                   |
|   \\  /    A nd           | Web:      www.OpenFOAM.org                      |
|    \\/     M anipulation  |                                                 |
\*---------------------------------------------------------------------------*/
/*   Windows 32 and 64 bit porting by blueCAPE: http://www.bluecape.com.pt   *\
|  Based on Windows porting (2.0.x v4) by Symscape: http://www.symscape.com   |
\*---------------------------------------------------------------------------*/
FoamFile
{
    version     2.0;
    format      ascii;
    class       surfaceScalarField;
    location    "0.008";
    object      phi_0;
}
// * * * * * * * * * * * * * * * * * * * * * * * * * * * * * * * * * * * * * //

dimensions      [1 0 -1 0 0 0 0];

internalField   nonuniform List<scalar> 
19740
(
0.000382766
-5.3868e-013
0.00143331
-3.22409e-013
0.00479638
4.60521e-013
0.0144362
1.12665e-012
0.0380547
9.0683e-013
0.0885753
7.35412e-013
0.182508
3.47278e-013
0.332435
1.116e-012
0.533932
6.63913e-013
0.766424
-7.62057e-013
1.00343
-6.54143e-013
1.22591
-8.97504e-013
1.42602
1.81632e-013
1.60216
2.39808e-013
1.75559
2.46025e-013
1.88778
6.86118e-014
2.00289
-4.46754e-013
2.09752
3.33289e-013
2.18094
9.30367e-014
2.25255
5.67657e-013
2.30216
1.78468e-012
2.34892
1.16992e-011
2.39529
3.04115e-011
2.42429
2.59903e-010
2.43611
6.16212e-010
2.44772
3.63019e-009
2.46776
9.38342e-009
2.48725
3.61893e-008
2.49349
9.43105e-008
2.48773
2.70582e-007
2.47583
6.71508e-007
2.46518
1.52301e-006
2.47026
3.2804e-006
2.4823
6.17937e-006
2.48683
1.10335e-005
2.48536
1.90249e-005
2.48452
3.19052e-005
2.472
4.49218e-005
2.45841
6.25493e-005
2.44972
7.16078e-005
2.44608
0.000161802
2.44561
0.000279737
2.45309
0.000286844
2.46889
0.000387355
2.48022
0.000604555
2.48775
0.000774868
2.48895
0.00092952
2.49141
0.00124616
2.49391
0.00105159
2.48973
0.000587321
2.46766
6.50506e-005
2.37378
1.95943e-005
2.18317
0.000632925
2.02569
0.00152083
1.92166
0.00150876
1.8233
0.00131308
1.72451
0.00280193
1.67333
0.0025392
1.63343
0.00260014
0.00307091
0.000370398
-5.69766e-013
0.001387
-6.72795e-013
0.00464139
2.83462e-012
0.0139698
2.79821e-012
0.0368251
4.29878e-013
0.0857133
1.29186e-012
0.176611
3.95683e-013
0.321693
1.59961e-012
0.516679
6.37712e-013
0.741659
-2.62457e-012
0.971009
-4.28546e-013
1.1863
-1.49747e-012
1.37994
-3.75255e-014
1.55039
6.06848e-013
1.69886
9.23261e-013
1.82678
3.43281e-013
1.93817
-2.06724e-013
2.02975
7.91811e-013
2.11047
6.42375e-013
2.17976
1.0385e-012
2.22778
3.17191e-012
2.27302
2.32685e-011
2.31789
5.98824e-011
2.34596
5.10128e-010
2.35739
1.21126e-009
2.36862
7.12448e-009
2.38802
1.8447e-008
2.40688
7.10768e-008
2.41292
1.85528e-007
2.40735
5.31639e-007
2.39583
1.32102e-006
2.38552
2.99281e-006
2.39045
6.45122e-006
2.40209
1.21511e-005
2.40648
2.16982e-005
2.40505
3.73796e-005
2.40424
6.25747e-005
2.39212
8.85129e-005
2.37898
0.000123261
2.37057
0.000139006
2.36704
0.0002985
2.36659
0.000509012
2.37384
0.00055293
2.38912
0.000812759
2.40025
0.0011399
2.40778
0.00162262
2.40852
0.00202447
2.41069
0.00272805
2.41267
0.00256849
2.40956
0.0018661
2.38832
0.000976975
2.29872
0.000672963
2.11183
0.000230707
1.95743
0.0026102
1.85847
0.0038594
1.76964
0.0042616
1.67295
0.00422386
1.62017
0.0045689
1.58259
0.00517211
0.0052014
0.00035843
-1.08802e-013
0.00134218
-1.37224e-012
0.00449142
3.3844e-012
0.0135184
1.85274e-012
0.0356352
-3.12195e-013
0.0829437
2.22711e-012
0.170904
1.31584e-012
0.311299
2.06146e-012
0.499984
2.83773e-013
0.717694
-1.74616e-012
0.939634
-8.31779e-013
1.14796
-1.35936e-012
1.33535
-5.60885e-013
1.5003
1.20859e-012
1.64397
8.62865e-013
1.76775
8.99725e-013
1.87554
-2.4647e-013
1.96416
1.37712e-012
2.04227
1.14309e-012
2.10933
1.86651e-012
2.15579
5.05906e-012
2.19957
3.41214e-011
2.24299
8.79102e-011
2.27015
7.48107e-010
2.28122
1.783e-009
2.29209
1.04697e-008
2.31086
2.71785e-008
2.32911
1.0457e-007
2.33495
2.73641e-007
2.32956
7.82645e-007
2.31841
1.94859e-006
2.30844
4.40703e-006
2.31321
9.5113e-006
2.32447
1.79151e-005
2.32872
3.19854e-005
2.32734
5.50451e-005
2.32656
9.19555e-005
2.31483
0.000130134
2.30211
0.000182529
2.29397
0.000204675
2.29056
0.000410743
2.29014
0.000710097
2.29715
0.00081528
2.31212
0.00109239
2.32314
0.0014122
2.33129
0.00227692
2.3323
0.0034172
2.3331
0.0036839
2.33532
0.00317182
2.33232
0.00212552
2.31234
0.00214047
2.23006
0.00247567
2.04699
0.00178586
1.89467
0.00362544
1.79748
0.00566833
1.71267
0.00654808
1.62032
0.00654012
1.56944
0.00678516
1.53161
0.00678016
0.00764457
0.000346848
4.06786e-013
0.00129881
-2.69784e-012
0.00434629
3.78231e-012
0.0130816
9.69447e-013
0.0344837
-3.69926e-013
0.0802636
1.86606e-012
0.165382
1.31228e-012
0.30124
3.48566e-012
0.483829
-5.46674e-013
0.694504
-6.1906e-013
0.909272
-1.40332e-013
1.11087
-1.98819e-012
1.2922
-5.17586e-013
1.45182
1.72307e-012
1.59085
1.46771e-012
1.71063
5.64215e-013
1.81494
1.56763e-013
1.9007
1.17595e-012
1.97628
1.44285e-012
2.04117
2.26197e-012
2.08613
6.19726e-012
2.1285
4.38374e-011
2.17052
1.14689e-010
2.1968
9.74278e-010
2.20751
2.33101e-009
2.21803
1.36559e-008
2.23619
3.55683e-008
2.25385
1.36605e-007
2.25951
3.58649e-007
2.25429
1.02324e-006
2.2435
2.55438e-006
2.23385
5.76412e-006
2.23846
1.24608e-005
2.24937
2.34716e-005
2.25347
4.18922e-005
2.25214
7.20131e-005
2.25138
0.000119893
2.24003
0.000170164
2.22773
0.000239233
2.21984
0.000273135
2.21655
0.000491881
2.21615
0.000886263
2.22296
0.00105149
2.23765
0.00133204
2.24809
0.00173111
2.25671
0.00288154
2.25786
0.00392801
2.25809
0.00394289
2.26101
0.0035048
2.25957
0.00305176
2.23696
0.00330392
2.15591
0.00396716
1.98996
0.0037272
1.83686
0.0051587
1.73872
0.00683231
1.65728
0.00760016
1.56901
0.00865429
1.51821
0.00919039
1.48261
0.00921693
0.0102781
0.000335641
1.5361e-012
0.00125684
-3.67617e-012
0.00420586
3.36398e-012
0.0126589
4.38316e-013
0.0333695
2.86882e-013
0.0776701
1.65867e-012
0.160038
1.41931e-012
0.291506
3.85114e-012
0.468195
-4.74287e-013
0.672063
-2.50466e-013
0.879892
-3.98348e-013
1.07498
-2.13962e-012
1.25045
-9.34364e-013
1.40491
2.18803e-012
1.53945
1.97242e-012
1.65536
2.74891e-013
1.7563
2.38032e-013
1.83928
1.99352e-012
1.91243
1.39799e-012
1.97522
2.72005e-012
2.01873
7.46003e-012
2.05973
5.27263e-011
2.10038
1.39647e-010
2.12582
1.18745e-009
2.13618
2.85389e-009
2.14636
1.6677e-008
2.16394
4.3612e-008
2.18102
1.67136e-007
2.1865
4.40564e-007
2.18145
1.25322e-006
2.17101
3.13864e-006
2.16167
7.06334e-006
2.16613
1.52998e-005
2.17668
2.88234e-005
2.18066
5.14137e-005
2.17937
8.829e-005
2.17863
0.000146245
2.16765
0.000209159
2.15575
0.000290667
2.14812
0.0003464
2.14493
0.000552063
2.14456
0.00105809
2.15117
0.00128243
2.16544
0.00164161
2.17547
0.00214932
2.18399
0.00349299
2.18423
0.0036416
2.1851
0.00375921
2.18781
0.00386229
2.18737
0.0040535
2.16439
0.00454987
2.08494
0.00525584
1.92885
0.00532925
1.77958
0.00676445
1.68159
0.00821593
1.60427
0.0089672
1.5174
0.0097698
1.46738
0.0108486
1.43546
0.0117197
0.012108
0.000324796
3.23652e-012
0.00121623
-4.4138e-012
0.00406996
2.94298e-012
0.0122498
2.44249e-013
0.0322912
-3.78364e-013
0.0751604
1.77902e-012
0.154867
5.40012e-013
0.282087
4.46487e-012
0.453067
-9.01501e-013
0.650348
1.1724e-013
0.851461
-7.70495e-013
1.04024
-1.47038e-012
1.21004
-9.06386e-013
1.35951
2.54641e-012
1.4897
1.04206e-012
1.60187
8.42659e-013
1.69955
5.65548e-013
1.77985
1.90714e-012
1.85063
1.64002e-012
1.9114
2.70428e-012
1.9535
8.43503e-012
1.99317
6.1503e-011
2.03252
1.63783e-010
2.05713
1.38723e-009
2.06716
3.35202e-009
2.077
1.95291e-008
2.09402
5.13059e-008
2.11055
1.96143e-007
2.11585
5.19404e-007
2.11096
1.47249e-006
2.10086
3.70163e-006
2.09182
8.30448e-006
2.09614
1.803e-005
2.10635
3.39717e-005
2.1102
6.05545e-005
2.10895
0.00010387
2.10824
0.000170997
2.09761
0.000246944
2.08609
0.000338188
2.07871
0.000417152
2.07563
0.000611711
2.07527
0.00123896
2.08165
0.00153312
2.0955
0.00188636
2.1053
0.00243707
2.11393
0.00378573
2.11309
0.00350386
2.11407
0.00388332
2.11666
0.00442555
2.11692
0.00484722
2.09443
0.00541064
2.01698
0.0061147
1.86829
0.00680811
1.72354
0.00852853
1.62692
0.00980753
1.55259
0.0104735
1.46811
0.0116375
1.42012
0.0124903
1.38927
0.012863
0.0137678
0.000314301
5.28733e-012
0.00117693
-4.75708e-012
0.00393845
3.01403e-012
0.011854
6.5814e-013
0.0312478
-1.32783e-013
0.0727318
7.51399e-013
0.149863
5.10259e-013
0.272972
5.03553e-012
0.438427
-7.80265e-013
0.629333
2.03837e-013
0.823948
-9.7744e-013
1.00663
-1.26832e-012
1.17095
-1.22391e-012
1.31558
2.35056e-012
1.44157
5.51559e-013
1.55011
1.37712e-012
1.64463
6.73017e-013
1.72234
2.40941e-012
1.79083
2.07478e-012
1.84963
3.13083e-012
1.89038
9.68181e-012
1.92877
6.94858e-011
1.96684
1.86528e-010
1.99066
1.5736e-009
2.00036
3.82463e-009
2.00989
2.2211e-008
2.02635
5.86505e-008
2.04235
2.23619e-007
2.04748
5.95195e-007
2.04275
1.68107e-006
2.03298
4.2437e-006
2.02423
9.48788e-006
2.02841
2.06531e-005
2.03829
3.89208e-005
2.04201
6.93123e-005
2.04081
0.000118765
2.04012
0.000194151
2.02983
0.000283374
2.01869
0.000381387
2.01154
0.000485743
2.00855
0.000684734
2.00823
0.00138796
2.01437
0.0017661
2.0277
0.00201082
2.0371
0.0026324
2.04546
0.00370845
2.04449
0.00370668
2.04565
0.00434988
2.04825
0.00505813
2.04892
0.00561697
2.02676
0.00621925
1.95116
0.00716242
1.80882
0.00872019
1.66839
0.0101657
1.57385
0.0108953
1.50275
0.0114137
1.42136
0.0133353
1.37356
0.0146511
1.34537
0.0151997
0.0157754
0.000304145
7.51577e-012
0.0011389
-5.17186e-012
0.00381119
2.0588e-012
0.011471
1.03384e-012
0.0302382
6.94111e-013
0.0703817
7.08322e-013
0.14502
3.90354e-013
0.264152
5.77938e-012
0.424261
-3.53939e-013
0.608998
4.21885e-013
0.797325
1.46549e-013
0.974103
-1.88871e-012
1.13311
-4.85834e-013
1.27307
1.51079e-012
1.39499
7.28972e-013
1.50002
1.46416e-012
1.59149
7.41629e-013
1.66669
2.29528e-012
1.73297
1.94134e-012
1.78987
3.42171e-012
1.82929
1.01854e-011
1.86644
7.69733e-011
1.90329
2.08084e-010
1.92633
1.74643e-009
1.93573
4.27196e-009
1.94495
2.47227e-008
1.96088
6.56475e-008
1.97636
2.49575e-007
1.98132
6.67969e-007
1.97675
1.87908e-006
1.96729
4.76521e-006
1.95882
1.06145e-005
1.96287
2.31703e-005
1.97243
4.36754e-005
1.97603
7.76942e-005
1.97486
0.000132965
1.9742
0.00021578
1.96424
0.000318345
1.95346
0.000419928
1.94655
0.000551578
1.94366
0.000762815
1.94336
0.00149108
1.9493
0.00195785
1.96196
0.00223893
1.97085
0.00291503
1.97841
0.00358183
1.97775
0.00404951
1.97947
0.00504391
1.98202
0.00579618
1.983
0.00638835
1.96171
0.00719762
1.88811
0.00839323
1.75008
0.0106267
1.61364
0.0118817
1.52193
0.0123359
1.45314
0.0133943
1.37336
0.0141884
1.32759
0.0162546
1.30176
0.0183538
0.018221
0.000294318
8.63665e-012
0.0011021
-4.94982e-012
0.00368804
1.66889e-012
0.0111003
9.96536e-013
0.0292611
1.52145e-012
0.0681075
5.16476e-013
0.140334
2.93987e-013
0.255617
6.32427e-012
0.410552
-1.98064e-013
0.58932
8.71303e-013
0.771562
-1.18572e-013
0.942628
-1.77014e-012
1.0965
-3.33511e-013
1.23194
1.08402e-012
1.34991
6.84341e-013
1.45155
1.75615e-012
1.54006
5.33129e-013
1.61283
2.38498e-012
1.67697
1.95821e-012
1.73203
3.338e-012
1.77019
1.09901e-011
1.80614
8.37745e-011
1.84179
2.27909e-010
1.86409
1.90642e-009
1.87318
4.69435e-009
1.8821
2.70678e-008
1.89752
7.23011e-008
1.9125
2.74032e-007
1.9173
7.37765e-007
1.91287
2.06669e-006
1.90372
5.26653e-006
1.89553
1.16856e-005
1.89944
2.55841e-005
1.9087
4.82395e-005
1.91218
8.5706e-005
1.91105
0.00014648
1.91041
0.000236029
1.90078
0.000351053
1.89034
0.00045589
1.88365
0.000613304
1.88087
0.00083549
1.88058
0.00157681
1.88635
0.0021255
1.89839
0.00248637
1.90697
0.00322501
1.91393
0.00369123
1.91334
0.00465659
1.9153
0.00577137
1.91784
0.00651832
1.91885
0.00720679
1.89884
0.00818081
1.82793
0.00965427
1.69372
0.0121499
1.56156
0.0129167
1.47306
0.0136834
1.40539
0.0151698
1.32751
0.0163227
1.28456
0.0177069
1.25766
0.0197922
0.0209149
0.000284808
9.46443e-012
0.00106649
-5.38503e-012
0.00356887
2.34746e-012
0.0107417
4.15668e-013
0.0283156
2.32081e-012
0.0659068
1.24345e-013
0.1358
1.11466e-013
0.247357
6.68354e-012
0.397286
1.2923e-013
0.570278
9.09495e-013
0.746631
3.09974e-013
0.912169
-8.2423e-013
1.06107
-3.57492e-013
1.19213
5.88418e-013
1.30629
1.34515e-012
1.40465
1.60472e-012
1.4903
4.98046e-013
1.56072
1.86517e-012
1.62279
2.07345e-012
1.67607
3.40949e-012
1.71299
1.19893e-011
1.74778
8.97946e-011
1.78228
2.46698e-010
1.80386
2.05331e-009
1.81265
5.09228e-009
1.82129
2.92487e-008
1.83621
7.86166e-008
1.8507
2.97021e-007
1.85535
8.04625e-007
1.85107
2.24416e-006
1.84221
5.74808e-006
1.83428
1.27026e-005
1.83807
2.78975e-005
1.84702
5.26145e-005
1.8504
9.33652e-005
1.8493
0.000159297
1.84868
0.000255005
1.83936
0.000381428
1.82927
0.000489939
1.82279
0.000669495
1.82011
0.000897312
1.81981
0.0016711
1.82541
0.00229869
1.8371
0.00280144
1.84531
0.00333118
1.85173
0.0038182
1.85137
0.0052696
1.85339
0.00634081
1.85594
0.00714665
1.85679
0.00792295
1.83765
0.00896493
1.76979
0.0105486
1.63945
0.0127031
1.5114
0.0136857
1.4262
0.0146891
1.36071
0.0164204
1.28549
0.0182028
1.24519
0.0194432
1.21719
0.0213006
0.0227019
0.000275605
1.04654e-011
0.00103203
-6.48281e-012
0.00345355
2.18758e-012
0.0103946
1.35891e-013
0.0274007
1.95755e-012
0.0637772
-2.44249e-013
0.131412
5.40012e-013
0.239365
7.13607e-012
0.384449
9.48575e-013
0.551851
7.37188e-013
0.722506
1.01963e-012
0.882695
-1.3114e-012
1.02678
3.8991e-013
1.15361
1.10267e-012
1.26408
9.01945e-013
1.35926
1.29519e-012
1.44215
4.06786e-013
1.51029
1.81544e-012
1.57035
1.96954e-012
1.62191
3.52696e-012
1.65764
1.25611e-011
1.6913
9.54143e-011
1.72469
2.64277e-010
1.74557
2.18753e-009
1.75408
5.46606e-009
1.76244
3.12713e-008
1.77687
8.46e-008
1.7909
3.18583e-007
1.7954
8.68598e-007
1.79125
2.41179e-006
1.78268
6.21028e-006
1.77501
1.36673e-005
1.77868
3.01131e-005
1.78734
5.68064e-005
1.79061
0.000100678
1.78955
0.000171437
1.78894
0.000272791
1.77993
0.000409363
1.77016
0.000521824
1.76389
0.000724371
1.76131
0.000957477
1.76102
0.00175825
1.76644
0.00243999
1.77778
0.00305117
1.78566
0.00339749
1.79161
0.003983
1.79162
0.00572889
1.79356
0.00664921
1.79615
0.00752398
1.79682
0.00834153
1.77836
0.00936836
1.71293
0.0113519
1.58619
0.0130639
1.46255
0.0141778
1.38041
0.0156026
1.31783
0.0179524
1.24468
0.0203243
1.20651
0.0211815
1.17898
0.0227036
0.0244757
0.0002667
1.24007e-011
0.000998685
-6.30784e-012
0.00334196
1.85985e-012
0.0100587
-2.07834e-013
0.0265153
1.67422e-012
0.0617165
-1.15463e-014
0.127166
1.18128e-013
0.23163
7.16627e-012
0.372027
2.55795e-012
0.53402
1.07381e-012
0.69916
1.03606e-012
0.854174
-1.37579e-012
0.993604
-1.62537e-013
1.11634
6.86118e-013
1.22324
7.62945e-013
1.31534
1.67022e-012
1.39555
6.23723e-013
1.46149
1.67977e-012
1.51961
1.92246e-012
1.5695
3.52074e-012
1.60408
1.30334e-011
1.63665
1.00294e-010
1.66896
2.80277e-010
1.68917
2.31021e-009
1.6974
5.81635e-009
1.70549
3.31402e-008
1.71946
9.02601e-008
1.73304
3.38764e-007
1.73738
9.29736e-007
1.73337
2.5699e-006
1.72508
6.65354e-006
1.71766
1.45816e-005
1.7212
3.22336e-005
1.72959
6.08191e-005
1.73275
0.000107658
1.73172
0.000182909
1.73114
0.000289444
1.72242
0.000435238
1.71297
0.000550699
1.7069
0.000777091
1.70439
0.00102871
1.70412
0.00183994
1.70937
0.00256797
1.72046
0.00327918
1.72789
0.00370839
1.73352
0.00424436
1.73393
0.00586954
1.73574
0.006869
1.73835
0.00765636
1.73887
0.00853364
1.721
0.00962211
1.65774
0.0118328
1.53503
0.0134315
1.41606
0.0146969
1.33669
0.0169803
1.27676
0.0194054
1.20505
0.0219257
1.16654
0.0227455
1.14179
0.0248253
0.0263071
0.000258082
1.27915e-011
0.000966415
-6.10889e-012
0.00323398
5.44453e-013
0.00973369
1.9984e-013
0.0256585
1.37756e-012
0.0597223
-1.26121e-013
0.123057
-4.21885e-013
0.224146
8.29603e-012
0.360006
2.83462e-012
0.516764
1.27809e-012
0.676569
1.15863e-012
0.826573
-7.50955e-013
0.961499
2.70894e-014
1.08026
5.55556e-013
1.18371
8.25562e-013
1.27284
1.34737e-012
1.35046
7.52731e-013
1.41426
1.39688e-012
1.47051
1.75926e-012
1.51879
3.45257e-012
1.55224
1.34954e-011
1.58377
1.04678e-010
1.61503
2.95207e-010
1.63459
2.42106e-009
1.64256
6.14388e-009
1.65038
3.48621e-008
1.6639
9.56048e-008
1.67704
3.57614e-007
1.68125
9.88098e-007
1.67737
2.71885e-006
1.66934
7.07832e-006
1.66216
1.54474e-005
1.66559
3.42623e-005
1.6737
6.46576e-005
1.67676
0.000114313
1.67577
0.000193739
1.6752
0.000305052
1.66676
0.000458919
1.65762
0.000577825
1.65175
0.00082472
1.64932
0.00111147
1.64906
0.0019109
1.65413
0.00271075
1.66485
0.0036536
1.67207
0.00426935
1.67751
0.00469026
1.67833
0.0055562
1.67997
0.00694008
1.68244
0.00776427
1.68287
0.00878702
1.6654
0.00998494
1.60437
0.011904
1.48559
0.0140755
1.37087
0.0158807
1.29408
0.0187671
1.23589
0.0206747
1.16699
0.0227138
1.12818
0.0241033
1.10478
0.0269907
0.0281841
0.000249743
1.29061e-011
0.000935189
-5.94635e-012
0.00312948
-2.30926e-013
0.00941918
6.91003e-013
0.0248295
1.07914e-012
0.0577925
-2.22045e-014
0.11908
1.11022e-013
0.216903
8.7228e-012
0.348373
3.01936e-012
0.500067
1.26965e-012
0.654707
8.45102e-013
0.799865
-7.78044e-013
0.930431
2.04281e-013
1.04536
4.88054e-013
1.14547
1.61338e-012
1.23171
1.04849e-012
1.30682
8.87068e-013
1.36857
1.15175e-012
1.42299
1.7879e-012
1.46971
3.62799e-012
1.50209
1.43974e-011
1.53259
1.086e-010
1.56285
3.09115e-010
1.58177
2.52161e-009
1.58948
6.45002e-009
1.59706
3.64437e-008
1.61014
1.00644e-007
1.62285
3.7519e-007
1.62692
1.04374e-006
1.62317
2.85902e-006
1.6154
7.48509e-006
1.60845
1.62669e-005
1.61177
3.62026e-005
1.61962
6.83262e-005
1.62258
0.000120654
1.62162
0.000203953
1.62107
0.000319671
1.61291
0.000480671
1.60406
0.00060215
1.59839
0.000868618
1.59603
0.00120403
1.59577
0.00199346
1.60067
0.00283079
1.61092
0.00394099
1.61842
0.00466436
1.62357
0.00526295
1.62505
0.00561081
1.62604
0.00688385
1.62837
0.00797464
1.62864
0.00910396
1.61157
0.0104903
1.55292
0.0122579
1.43653
0.0150928
1.32667
0.0172374
1.2529
0.0204753
1.19586
0.0220931
1.13008
0.0235395
1.09303
0.0258423
1.06799
0.0291732
0.0307196
0.000241673
1.26184e-011
0.000904971
-5.92415e-012
0.00302836
-8.99725e-013
0.00911482
2.66454e-014
0.0240272
1.24434e-012
0.0559251
3.4639e-014
0.115233
9.22817e-013
0.209895
9.11982e-012
0.337117
2.92966e-012
0.483908
1.22613e-012
0.633552
1.2883e-012
0.77402
-3.35731e-013
0.900366
-3.95239e-013
1.01158
2.34035e-013
1.10845
2.17071e-012
1.19191
1.31584e-012
1.26459
7.55396e-013
1.32434
1.21902e-012
1.37701
1.88627e-012
1.42223
3.63709e-012
1.45355
1.47125e-011
1.48307
1.11436e-010
1.51235
3.22145e-010
1.53066
2.6114e-009
1.53812
6.73499e-009
1.54545
3.78922e-008
1.55811
1.05388e-007
1.57041
3.91547e-007
1.57435
1.09674e-006
1.57072
2.9908e-006
1.5632
7.87431e-006
1.55648
1.70421e-005
1.55969
3.80568e-005
1.56729
7.18316e-005
1.57015
0.000126691
1.56922
0.000213575
1.56869
0.000333388
1.56079
0.000500514
1.55223
0.000624282
1.54675
0.000909385
1.54447
0.0012997
1.5442
0.00209582
1.54892
0.00296586
1.55909
0.00382
1.56707
0.00453727
1.57174
0.00560158
1.5739
0.00673792
1.57366
0.0070401
1.57606
0.00814072
1.57623
0.00951209
1.55973
0.0110905
1.50363
0.0129221
1.389
0.0157183
1.28349
0.0181597
1.21376
0.0211701
1.1574
0.0227715
1.09443
0.0250988
1.05874
0.0289189
1.03156
0.0320111
0.0331708
0.000233864
1.17115e-011
0.000875729
-6.09024e-012
0.00293051
-1.70974e-012
0.0088203
-6.53699e-013
0.0232508
1.21325e-012
0.0541181
-8.88178e-014
0.111509
1.45839e-012
0.203112
9.13047e-012
0.326224
3.53584e-012
0.468272
8.30447e-013
0.613081
1.25855e-012
0.74901
-2.18492e-013
0.871274
-6.86118e-013
0.978895
5.28466e-014
1.07264
1.75726e-012
1.1534
1.28786e-012
1.22373
1.06803e-012
1.28155
1.17661e-012
1.33252
2.0719e-012
1.37627
3.90399e-012
1.40658
1.52884e-011
1.43515
1.14863e-010
1.46348
3.33666e-010
1.4812
2.69197e-009
1.48842
6.99995e-009
1.49551
3.92145e-008
1.50776
1.09846e-007
1.51967
4.06745e-007
1.52348
1.14716e-006
1.51997
3.11459e-006
1.51269
8.24646e-006
1.50618
1.77751e-005
1.50929
3.9828e-005
1.51665
7.51785e-005
1.51942
0.000132436
1.51852
0.000222631
1.51801
0.000346296
1.51036
0.000518327
1.50208
0.000645409
1.49677
0.000947881
1.49457
0.00139151
1.49431
0.00220623
1.49887
0.00310255
1.50865
0.00380425
1.51634
0.00459138
1.52072
0.0059481
1.52216
0.00769258
1.52291
0.00705221
1.52547
0.00809596
1.52542
0.00991669
1.50967
0.0115997
1.45618
0.0135729
1.34285
0.016211
1.24127
0.0184023
1.17506
0.0212281
1.11897
0.0237401
1.05841
0.0270407
1.02541
0.0305838
0.997369
0.0336947
0.0371365
0.000226307
1.12657e-011
0.000847432
-5.77138e-012
0.00283582
-1.94422e-012
0.0085353
-1.20615e-012
0.0224995
1.04272e-012
0.0523694
-6.67022e-013
0.107906
1.33493e-012
0.196549
9.01323e-012
0.315683
4.36629e-012
0.453142
7.81153e-013
0.593271
1.00187e-012
0.724808
-6.44818e-013
0.843121
-4.01013e-013
0.947265
-2.06501e-013
1.03798
1.59117e-012
1.11613
9.90319e-013
1.18419
1.48725e-012
1.24014
1.32494e-012
1.28946
2.00173e-012
1.3318
4.033e-012
1.36114
1.56868e-011
1.38878
1.1723e-010
1.41619
3.44692e-010
1.43334
2.76336e-009
1.44033
7.24585e-009
1.44719
4.04182e-008
1.45904
1.14031e-007
1.47056
4.20842e-007
1.47425
1.19508e-006
1.47085
3.23078e-006
1.46381
8.60199e-006
1.45751
1.84682e-005
1.46052
4.15187e-005
1.46764
7.83728e-005
1.47032
0.000137898
1.46945
0.000231152
1.46896
0.000358436
1.46156
0.000534359
1.45354
0.000665821
1.44841
0.000982995
1.44628
0.00148563
1.44604
0.00229504
1.45049
0.00322336
1.45989
0.00406099
1.46695
0.00509371
1.47101
0.00643572
1.47176
0.00784666
1.47352
0.00724562
1.47616
0.00792174
1.47575
0.00976782
1.46124
0.0117064
1.41002
0.0139051
1.29777
0.0166069
1.20064
0.0183203
1.13777
0.0207617
1.083
0.0247357
1.02392
0.0283846
0.992684
0.0315341
0.964898
0.0349919
0.0397467
0.000218995
9.5266e-012
0.00082005
-6.529e-012
0.00274419
-1.73106e-012
0.00825951
-2.12541e-012
0.0217725
5.62217e-013
0.0506772
-4.65405e-013
0.10442
1.27898e-012
0.190199
9.32765e-012
0.305482
4.33609e-012
0.4385
5.60441e-013
0.574101
1.05249e-013
0.701387
-3.11751e-013
0.815878
-5.23137e-013
0.916657
1.13687e-013
1.00444
1.44373e-012
1.08007
1.73195e-012
1.14593
1.37845e-012
1.20007
1.51079e-012
1.2478
1.99663e-012
1.28877
4.18487e-012
1.31715
1.60134e-011
1.3439
1.19629e-010
1.37043
3.55046e-010
1.38703
2.82653e-009
1.39379
7.47336e-009
1.40043
4.15103e-008
1.4119
1.17952e-007
1.42305
4.339e-007
1.42662
1.24057e-006
1.42333
3.33977e-006
1.41651
8.94144e-006
1.41042
1.91232e-005
1.41333
4.31328e-005
1.42022
8.14177e-005
1.42281
0.000143094
1.42197
0.000239158
1.42149
0.000369861
1.41433
0.00054882
1.40658
0.000685505
1.40161
0.00101549
1.39955
0.00157512
1.39933
0.00235952
1.40368
0.00331265
1.41282
0.00437867
1.41945
0.00572608
1.42326
0.00696101
1.42421
0.00761793
1.4258
0.00756191
1.42828
0.00787265
1.42753
0.00940931
1.4144
0.0117236
1.36544
0.0141308
1.25449
0.0170669
1.16229
0.018126
1.10158
0.0204805
1.04866
0.0255586
0.991356
0.0301307
0.961849
0.0325599
0.934284
0.03657
0.0412445
0.000211919
8.14726e-012
0.000793553
-6.8896e-012
0.00265551
-1.40687e-012
0.00799262
-2.6974e-012
0.021069
6.83009e-013
0.0490397
-1.3145e-013
0.101046
7.15872e-013
0.184053
9.06919e-012
0.295612
4.63185e-012
0.424331
5.00933e-013
0.555551
6.26166e-014
0.678724
-2.17604e-013
0.789515
-3.57492e-013
0.887038
-2.14051e-013
0.971983
2.18447e-012
1.04517
1.67777e-012
1.1089
1.40243e-012
1.16129
1.49658e-012
1.20748
2.10876e-012
1.24712
4.13847e-012
1.27459
1.64164e-011
1.30048
1.21497e-010
1.32615
3.64282e-010
1.34221
2.88197e-009
1.34875
7.68352e-009
1.35518
4.24983e-008
1.36628
1.21623e-007
1.37707
4.45974e-007
1.38052
1.2837e-006
1.37733
3.44194e-006
1.37074
9.26527e-006
1.36485
1.97423e-005
1.36766
4.46725e-005
1.37433
8.43197e-005
1.37684
0.000148033
1.37603
0.000246681
1.37556
0.000380618
1.36863
0.00056176
1.36113
0.000704796
1.35632
0.00104534
1.35434
0.00165481
1.35412
0.00241094
1.35834
0.00337543
1.3673
0.00454733
1.37341
0.0062312
1.3775
0.00734538
1.37825
0.00777753
1.37971
0.00803422
1.38172
0.00827237
1.3807
0.00935274
1.36893
0.0118105
1.32216
0.0144737
1.21319
0.017366
1.12557
0.0182202
1.0661
0.0207754
1.01573
0.0261505
0.960213
0.0311576
0.931847
0.0342634
0.90588
0.0383427
0.0436517
0.000205071
6.14531e-012
0.000767911
-7.53708e-012
0.00256971
-1.15374e-012
0.00773437
-2.97184e-012
0.0203882
1.02496e-012
0.0474552
-2.6823e-013
0.0977805
4.93827e-013
0.178106
9.19886e-012
0.28606
4.448e-012
0.41062
4.39648e-013
0.5376
2.71783e-013
0.656793
-3.10862e-015
0.764004
-1.35447e-013
0.858376
-7.9492e-014
0.940576
2.41807e-012
1.0114
1.18616e-012
1.07307
1.51834e-012
1.12377
1.38956e-012
1.16846
2.20535e-012
1.20683
4.3161e-012
1.23341
1.67213e-011
1.25846
1.23305e-010
1.2833
3.72363e-010
1.29884
2.93026e-009
1.30517
7.87723e-009
1.31139
4.33882e-008
1.32213
1.25052e-007
1.33257
4.57124e-007
1.33591
1.32457e-006
1.33283
3.53767e-006
1.32645
9.574e-006
1.32074
2.03273e-005
1.32347
4.61403e-005
1.32992
8.70861e-005
1.33235
0.000152722
1.33156
0.000253747
1.33111
0.000390736
1.32441
0.000573548
1.31715
0.000722947
1.3125
0.00107371
1.31059
0.00171874
1.31038
0.00245161
1.31447
0.00342987
1.32307
0.00470383
1.32891
0.00656742
1.33308
0.00771149
1.33376
0.00829893
1.33517
0.00865223
1.33698
0.00892238
1.33595
0.00988164
1.32473
0.0122191
1.2794
0.0147309
1.17333
0.0174577
1.08952
0.0189212
1.03102
0.0220857
0.982996
0.0274264
0.929271
0.0322222
0.901205
0.0366536
0.87762
0.0407885
0.0457482
0.000198445
4.5226e-012
0.000743098
-7.72804e-012
0.00248668
-4.81393e-013
0.00748445
-3.4559e-012
0.0197294
5.9952e-013
0.0459218
-6.40377e-013
0.094621
5.6577e-013
0.172351
9.29123e-012
0.276817
4.42046e-012
0.397352
-1.36779e-013
0.520229
2.30926e-013
0.635571
7.14984e-014
0.739318
2.80664e-013
0.83064
-8.43769e-015
0.910184
2.25775e-012
0.978717
1.29496e-012
1.0384
1.16307e-012
1.08746
1.34648e-012
1.13071
2.4496e-012
1.16783
4.19531e-012
1.19356
1.7178e-011
1.21779
1.24577e-010
1.24183
3.79784e-010
1.25687
2.97202e-009
1.263
8.05559e-009
1.26902
4.41878e-008
1.27941
1.28253e-007
1.28951
4.67405e-007
1.29275
1.36325e-006
1.28976
3.62733e-006
1.28359
9.86811e-006
1.27807
2.08802e-005
1.28071
4.75389e-005
1.28695
8.97211e-005
1.2893
0.000157175
1.28854
0.000260385
1.2881
0.000400232
1.28162
0.000584346
1.27459
0.000740115
1.27009
0.00109898
1.26825
0.00177053
1.26805
0.00248858
1.272
0.00349952
1.28026
0.00491682
1.28597
0.00686797
1.29001
0.00810449
1.29065
0.00874998
1.29202
0.00918199
1.29372
0.00961459
1.2927
0.0108656
1.28191
0.0128264
1.23793
0.0150953
1.13484
0.0179137
1.05467
0.0197793
0.997887
0.0236231
0.951958
0.0287102
0.899571
0.0335687
0.870774
0.0385401
0.850952
0.0434298
0.0467668
0.000192033
2.94875e-012
0.000719087
-7.74225e-012
0.00240633
-4.65405e-013
0.00724261
-3.77298e-012
0.0190919
-4.44089e-013
0.044438
-6.54587e-013
0.0915636
1.0747e-012
0.166782
1.03162e-011
0.267872
4.65761e-012
0.384512
-2.74447e-013
0.503419
4.35207e-013
0.615034
-2.48246e-013
0.715429
6.78568e-013
0.8038
-3.44613e-013
0.880774
1.71374e-012
0.947092
1.55786e-012
1.00484
1.10312e-012
1.05232
1.47349e-012
1.09417
2.30482e-012
1.1301
4.18687e-012
1.15499
1.74565e-011
1.17845
1.25506e-010
1.20171
3.87048e-010
1.21626
3.00745e-009
1.22219
8.21973e-009
1.22801
4.49029e-008
1.23807
1.31236e-007
1.24784
4.76872e-007
1.25098
1.39982e-006
1.24809
3.71128e-006
1.24212
1.01481e-005
1.23677
2.14026e-005
1.23933
4.88716e-005
1.24536
9.22282e-005
1.24764
0.000161406
1.2469
0.000266613
1.24648
0.000409161
1.24021
0.000594258
1.23341
0.000756207
1.22906
0.00112113
1.22727
0.00181728
1.22709
0.00251323
1.23089
0.0035747
1.23885
0.00517112
1.24436
0.00721027
1.24848
0.00851236
1.24897
0.00897254
1.25033
0.00964229
1.25189
0.0103322
1.25097
0.0117021
1.2406
0.0133438
1.19767
0.0155924
1.09815
0.0186366
1.02111
0.0207504
0.965964
0.0249954
0.921491
0.0298341
0.871356
0.033192
0.843238
0.0393254
0.824279
0.045332
0.0464742
0.000185828
1.53921e-012
0.000695852
-7.96962e-012
0.00232857
-8.34888e-014
0.00700859
-3.98792e-012
0.018475
-1.05871e-012
0.0430021
-5.13367e-013
0.088605
1.07558e-012
0.161393
1.02078e-011
0.259216
4.29523e-012
0.372088
-4.7784e-013
0.487152
5.6577e-013
0.595161
-1.59872e-013
0.692312
1.93623e-013
0.777828
-1.93179e-013
0.852314
1.58362e-012
0.91649
1.94822e-012
0.972374
8.97504e-013
1.01832
1.47038e-012
1.05882
2.25153e-012
1.09358
4.17177e-012
1.11767
1.80072e-011
1.14037
1.2657e-010
1.16288
3.93125e-010
1.17696
3.03762e-009
1.1827
8.36977e-009
1.18833
4.554e-008
1.19806
1.34012e-007
1.20752
4.85576e-007
1.21055
1.43437e-006
1.20776
3.78985e-006
1.20198
1.04146e-005
1.19681
2.18965e-005
1.19928
5.01404e-005
1.20512
9.46159e-005
1.20733
0.000165417
1.20661
0.000272474
1.20621
0.000417531
1.20013
0.000603389
1.19356
0.00077128
1.18935
0.00114151
1.18762
0.00185954
1.18744
0.00252396
1.19111
0.00365312
1.19879
0.00542681
1.2042
0.00741446
1.20839
0.00873884
1.20876
0.00925709
1.20998
0.0101107
1.21141
0.0109897
1.21048
0.012503
1.20046
0.014076
1.15858
0.0164178
1.0627
0.0192518
0.988136
0.0222279
0.934702
0.026558
0.891342
0.0308915
0.843716
0.0331053
0.817236
0.0402663
0.798043
0.0457256
0.0464982
0.000179823
6.53699e-013
0.000673368
-8.32046e-012
0.00225333
-2.76223e-013
0.00678213
-4.51017e-012
0.0178781
-1.39266e-012
0.0416126
-4.83169e-013
0.085742
6.13731e-013
0.156178
9.89608e-012
0.250841
3.76854e-012
0.360065
-1.00009e-012
0.471411
6.78568e-013
0.57593
-5.15143e-013
0.669942
4.80505e-013
0.752694
-6.1906e-013
0.824774
2.0961e-012
0.886876
2.21911e-012
0.940954
1.01741e-012
0.985414
1.79901e-012
1.0246
2.21911e-012
1.05824
3.77653e-012
1.08155
1.8344e-011
1.10352
1.27215e-010
1.1253
3.98878e-010
1.13893
3.06274e-009
1.14448
8.50716e-009
1.14993
4.61051e-008
1.15935
1.36593e-007
1.16851
4.93569e-007
1.17144
1.46697e-006
1.16874
3.86338e-006
1.16314
1.06679e-005
1.15814
2.23633e-005
1.16053
5.13486e-005
1.16618
9.68856e-005
1.16831
0.000169226
1.16763
0.000277981
1.16723
0.000425373
1.16135
0.000611883
1.15499
0.00078546
1.15092