/*--------------------------------*- C++ -*----------------------------------*\
| =========                 |                                                 |
| \\      /  F ield         | OpenFOAM: The Open Source CFD Toolbox           |
|  \\    /   O peration     | Version:  5.x                                   |
|   \\  /    A nd           | Web:      www.OpenFOAM.org                      |
|    \\/     M anipulation  |                                                 |
\*---------------------------------------------------------------------------*/
/*   Windows 32 and 64 bit porting by blueCAPE: http://www.bluecape.com.pt   *\
|  Based on Windows porting (2.0.x v4) by Symscape: http://www.symscape.com   |
\*---------------------------------------------------------------------------*/
FoamFile
{
    version     2.0;
    format      ascii;
    class       volScalarField;
    location    "0.008";
    object      T;
}
// * * * * * * * * * * * * * * * * * * * * * * * * * * * * * * * * * * * * * //

dimensions      [0 0 0 1 0 0 0];

internalField   nonuniform List<scalar> 
10000
(
348.429
348.42
348.39
348.295
348.038
347.431
346.187
343.947
340.514
335.957
330.669
325.034
319.4
313.855
308.543
303.287
298.604
293.21
289.99
284.084
280.715
277.993
273.268
268.989
266.916
265.429
262.705
259.044
256.138
254.997
254.934
254.885
254.325
252.505
250.879
250.207
250.192
250.574
251.605
252.699
253.279
253.358
253.075
251.89
250.52
249.595
249.057
248.803
248.74
248.835
249.849
255.172
271.699
293.556
314.425
334.065
349.056
364.625
371.999
385.334
348.429
348.42
348.39
348.295
348.038
347.431
346.187
343.947
340.514
335.957
330.669
325.034
319.4
313.855
308.543
303.287
298.604
293.21
289.99
284.084
280.715
277.993
273.268
268.989
266.916
265.429
262.705
259.044
256.138
254.997
254.934
254.885
254.325
252.505
250.879
250.207
250.192
250.574
251.605
252.699
253.279
253.358
253.075
251.89
250.519
249.593
249.058
248.8
248.737
248.834
249.85
255.194
271.763
293.614
314.45
334.035
349.008
364.624
371.999
385.33
348.429
348.42
348.39
348.295
348.038
347.431
346.187
343.947
340.514
335.957
330.669
325.034
319.4
313.855
308.543
303.287
298.604
293.21
289.99
284.084
280.715
277.993
273.268
268.989
266.916
265.429
262.705
259.044
256.138
254.997
254.934
254.885
254.325
252.505
250.879
250.206
250.192
250.574
251.605
252.699
253.279
253.358
253.075
251.889
250.517
249.589
249.06
248.797
248.733
248.827
249.838
255.186
271.833
293.655
314.489
334.052
349.008
364.628
372.006
385.342
348.429
348.42
348.39
348.295
348.038
347.431
346.187
343.947
340.514
335.957
330.669
325.034
319.4
313.855
308.543
303.287
298.604
293.21
289.99
284.084
280.715
277.993
273.268
268.989
266.916
265.429
262.705
259.044
256.138
254.997
254.934
254.885
254.325
252.505
250.879
250.206
250.192
250.574
251.605
252.698
253.279
253.358
253.075
251.889
250.515
249.588
249.061
248.794
248.728
248.828
249.838
255.161
271.777
293.614
314.454
334.042
349.013
364.641
372.014
385.328
348.429
348.42
348.39
348.295
348.038
347.431
346.187
343.947
340.514
335.957
330.669
325.034
319.4
313.855
308.543
303.287
298.604
293.21
289.99
284.084
280.715
277.993
273.268
268.989
266.916
265.429
262.705
259.044
256.138
254.997
254.934
254.885
254.325
252.505
250.879
250.206
250.192
250.574
251.605
252.698
253.279
253.358
253.075
251.89
250.515
249.59
249.061
248.792
248.725
248.826
249.84
255.152
271.763
293.622
314.451
334.044
349.032
364.653
372.021
385.301
348.429
348.42
348.39
348.295
348.038
347.431
346.187
343.947
340.514
335.957
330.669
325.034
319.4
313.855
308.543
303.287
298.604
293.21
289.99
284.084
280.715
277.993
273.268
268.989
266.916
265.429
262.705
259.044
256.138
254.997
254.934
254.885
254.325
252.505
250.879
250.206
250.192
250.574
251.605
252.698
253.278
253.358
253.075
251.889
250.513
249.591
249.062
248.792
248.725
248.828
249.842
255.145
271.737
293.6
314.42
334.014
349.024
364.642
372.015
385.308
348.429
348.42
348.39
348.295
348.038
347.431
346.187
343.947
340.514
335.957
330.669
325.034
319.4
313.855
308.543
303.287
298.604
293.21
289.99
284.084
280.715
277.993
273.268
268.989
266.916
265.429
262.705
259.044
256.138
254.997
254.934
254.885
254.325
252.505
250.879
250.206
250.192
250.574
251.605
252.698
253.278
253.357
253.075
251.89
250.513
249.592
249.062
248.793
248.725
248.828
249.844
255.156
271.764
293.63
314.44
334.02
349.012
364.623
371.993
385.326
348.429
348.42
348.39
348.295
348.038
347.431
346.187
343.947
340.514
335.957
330.669
325.034
319.4
313.855
308.543
303.287
298.604
293.21
289.99
284.084
280.715
277.993
273.268
268.989
266.916
265.429
262.705
259.044
256.138
254.997
254.934
254.885
254.325
252.505
250.879
250.206
250.192
250.574
251.605
252.698
253.278
253.357
253.075
251.89
250.514
249.594
249.059
248.792
248.726
248.828
249.844
255.159
271.781
293.661
314.462
334.041
349.034
364.6
371.956
385.35
348.429
348.42
348.39
348.295
348.038
347.431
346.187
343.947
340.514
335.957
330.669
325.034
319.4
313.855
308.543
303.287
298.604
293.21
289.99
284.084
280.715
277.993
273.268
268.989
266.916
265.429
262.705
259.044
256.138
254.997
254.934
254.885
254.325
252.505
250.879
250.206
250.192
250.574
251.605
252.698
253.278
253.357
253.075
251.89
250.515
249.594
249.056
248.791
248.725
248.826
249.841
255.143
271.739
293.603
314.411
334.008
349.021
364.593
371.937
385.337
348.429
348.42
348.39
348.295
348.038
347.431
346.187
343.947
340.514
335.957
330.669
325.034
319.4
313.855
308.543
303.287
298.604
293.21
289.99
284.084
280.715
277.993
273.268
268.989
266.916
265.429
262.705
259.044
256.138
254.997
254.934
254.885
254.325
252.505
250.879
250.206
250.192
250.574
251.605
252.697
253.278
253.357
253.075
251.89
250.516
249.594
249.055
248.791
248.724
248.825
249.837
255.133
271.716
293.571
314.386
333.995
349.007
364.578
371.924
385.308
348.429
348.42
348.39
348.295
348.038
347.431
346.187
343.947
340.514
335.957
330.669
325.034
319.4
313.855
308.543
303.287
298.604
293.21
289.99
284.084
280.715
277.993
273.268
268.989
266.916
265.429
262.705
259.044
256.138
254.997
254.934
254.885
254.325
252.505
250.879
250.206
250.192
250.574
251.605
252.697
253.278
253.357
253.075
251.89
250.517
249.594
249.056
248.791
248.724
248.825
249.835
255.133
271.718
293.564
314.372
333.968
348.98
364.552
371.909
385.284
348.429
348.42
348.39
348.295
348.038
347.431
346.187
343.947
340.514
335.957
330.669
325.034
319.4
313.855
308.543
303.287
298.604
293.21
289.99
284.084
280.715
277.993
273.268
268.989
266.916
265.429
262.705
259.044
256.138
254.997
254.934
254.885
254.325
252.505
250.879
250.206
250.192
250.574
251.605
252.697
253.278
253.357
253.075
251.891
250.517
249.593
249.057
248.791
248.723
248.825
249.835
255.133
271.709
293.539
314.352
333.947
348.948
364.535
371.887
385.271
348.429
348.42
348.39
348.295
348.038
347.431
346.187
343.947
340.514
335.957
330.669
325.034
319.4
313.855
308.543
303.287
298.604
293.21
289.99
284.084
280.715
277.993
273.268
268.989
266.916
265.429
262.705
259.044
256.138
254.997
254.934
254.885
254.325
252.505
250.879
250.206
250.192
250.574
251.605
252.697
253.278
253.357
253.075
251.891
250.518
249.593
249.058
248.791
248.723
248.825
249.836
255.135
271.708
293.528
314.344
333.939
348.919
364.523
371.86
385.26
348.429
348.42
348.39
348.295
348.038
347.431
346.187
343.947
340.514
335.957
330.669
325.034
319.4
313.855
308.543
303.287
298.604
293.21
289.99
284.084
280.715
277.993
273.268
268.989
266.916
265.429
262.705
259.044
256.138
254.997
254.934
254.885
254.325
252.505
250.879
250.206
250.192
250.574
251.605
252.697
253.278
253.357
253.075
251.89
250.518
249.592
249.06
248.792
248.722
248.824
249.834
255.132
271.719
293.541
314.356
333.942
348.915
364.538
371.875
385.243
348.429
348.42
348.39
348.295
348.038
347.431
346.187
343.947
340.514
335.957
330.669
325.034
319.4
313.855
308.543
303.287
298.604
293.21
289.99
284.084
280.715
277.993
273.268
268.989
266.916
265.429
262.705
259.044
256.138
254.997
254.934
254.885
254.325
252.505
250.879
250.206
250.192
250.573
251.605
252.697
253.278
253.357
253.076
251.89
250.518
249.591
249.059
248.795
248.722
248.823
249.828
255.111
271.677
293.496
314.318
333.903
348.873
364.506
371.856
385.219
348.429
348.42
348.39
348.295
348.038
347.431
346.187
343.947
340.514
335.957
330.669
325.034
319.4
313.855
308.543
303.287
298.604
293.21
289.99
284.084
280.715
277.993
273.268
268.989
266.916
265.429
262.705
259.044
256.138
254.997
254.934
254.885
254.325
252.505
250.879
250.206
250.192
250.573
251.605
252.697
253.278
253.357
253.076
251.891
250.519
249.593
249.059
248.793
248.721
248.821
249.821
255.088
271.613
293.423
314.243
333.825
348.812
364.425
371.787
385.167
348.429
348.42
348.39
348.295
348.038
347.431
346.187
343.947
340.514
335.957
330.669
325.034
319.4
313.855
308.543
303.287
298.604
293.21
289.99
284.084
280.715
277.993
273.268
268.989
266.916
265.429
262.705
259.044
256.138
254.997
254.934
254.885
254.325
252.505
250.879
250.206
250.191
250.573
251.605
252.697
253.278
253.357
253.076
251.892
250.521
249.596
249.058
248.792
248.723
248.822
249.819
255.089
271.616
293.42
314.223
333.789
348.789
364.384
371.756
385.156
348.429
348.42
348.39
348.295
348.038
347.431
346.187
343.947
340.514
335.957
330.669
325.034
319.4
313.855
308.543
303.287
298.604
293.21
289.99
284.084
280.715
277.993
273.268
268.989
266.916
265.429
262.705
259.044
256.138
254.997
254.934
254.885
254.325
252.505
250.879
250.206
250.191
250.573
251.604
252.697
253.278
253.357
253.076
251.892
250.522
249.598
249.056
248.795
248.725
248.824
249.819
255.086
271.595
293.389
314.186
333.763
348.748
364.352
371.735
385.145
348.429
348.42
348.39
348.295
348.038
347.431
346.187
343.947
340.514
335.957
330.669
325.034
319.4
313.855
308.543
303.287
298.604
293.21
289.99
284.084
280.715
277.993
273.268
268.989
266.916
265.429
262.705
259.044
256.138
254.997
254.934
254.885
254.325
252.505
250.879
250.206
250.191
250.573
251.604
252.697
253.278
253.357
253.076
251.893
250.524
249.598
249.057
248.798
248.727
248.824
249.82
255.083
271.555
293.328
314.147
333.754
348.738
364.333
371.719
385.129
348.429
348.42
348.39
348.295
348.038
347.431
346.187
343.947
340.514
335.957
330.669
325.034
319.4
313.855
308.543
303.287
298.604
293.21
289.99
284.084
280.715
277.993
273.268
268.989
266.916
265.429
262.705
259.044
256.138
254.997
254.934
254.885
254.325
252.505
250.879
250.206
250.191
250.573
251.604
252.697
253.278
253.358
253.077
251.893
250.525
249.599
249.059
248.8
248.727
248.822
249.824
255.089
271.543
293.317
314.148
333.748
348.722
364.313
371.699
385.126
348.429
348.42
348.39
348.295
348.038
347.431
346.187
343.947
340.514
335.957
330.669
325.034
319.4
313.855
308.543
303.287
298.604
293.21
289.99
284.084
280.715
277.993
273.268
268.989
266.916
265.429
262.705
259.044
256.138
254.997
254.934
254.885
254.325
252.505
250.879
250.206
250.191
250.573
251.604
252.697
253.278
253.358
253.077
251.893
250.525
249.601
249.06
248.802
248.727
248.82
249.825
255.096
271.542
293.318
314.133
333.718
348.695
364.299
371.671
385.118
348.429
348.42
348.39
348.295
348.038
347.431
346.187
343.947
340.514
335.957
330.669
325.034
319.4
313.855
308.543
303.287
298.604
293.21
289.99
284.084
280.715
277.993
273.268
268.989
266.916
265.429
262.705
259.044
256.138
254.997
254.934
254.885
254.325
252.505
250.879
250.206
250.191
250.573
251.604
252.697
253.278
253.358
253.077
251.893
250.525
249.601
249.062
248.803
248.728
248.819
249.823
255.096
271.543
293.321
314.113
333.688
348.672
364.287
371.653
385.118
348.429
348.42
348.39
348.295
348.038
347.431
346.187
343.947
340.514
335.957
330.669
325.034
319.4
313.855
308.543
303.287
298.604
293.21
289.99
284.084
280.715
277.993
273.268
268.989
266.916
265.429
262.705
259.044
256.138
254.997
254.934
254.885
254.325
252.505
250.879
250.206
250.191
250.573
251.604
252.697
253.278
253.358
253.077
251.893
250.526
249.601
249.064
248.802
248.728
248.818
249.82
255.098
271.559
293.349
314.151
333.718
348.682
364.303
371.658
385.113
348.429
348.42
348.39
348.295
348.038
347.431
346.187
343.947
340.514
335.957
330.669
325.034
319.4
313.855
308.543
303.287
298.604
293.21
289.99
284.084
280.715
277.993
273.268
268.989
266.916
265.429
262.705
259.044
256.138
254.997
254.934
254.885
254.325
252.504
250.879
250.206
250.191
250.573
251.604
252.697
253.277
253.358
253.077
251.892
250.525
249.601
249.065
248.802
248.727
248.818
249.816
255.084
271.534
293.335
314.158
333.733
348.685
364.301
371.641
385.117
348.429
348.42
348.39
348.295
348.038
347.431
346.187
343.947
340.514
335.957
330.669
325.034
319.4
313.855
308.543
303.287
298.604
293.21
289.99
284.084
280.715
277.993
273.268
268.989
266.916
265.429
262.705
259.044
256.138
254.997
254.934
254.885
254.325
252.504
250.879
250.206
250.191
250.573
251.604
252.697
253.277
253.358
253.077
251.892
250.526
249.601
249.065
248.801
248.726
248.817
249.812
255.071
271.51
293.32
314.159
333.74
348.67
364.272
371.592
385.074
348.429
348.42
348.39
348.295
348.038
347.431
346.187
343.947
340.514
335.957
330.669
325.034
319.4
313.855
308.543
303.287
298.604
293.21
289.99
284.084
280.715
277.993
273.268
268.989
266.916
265.429
262.705
259.044
256.138
254.997
254.934
254.885
254.325
252.504
250.879
250.206
250.191
250.573
251.604
252.697
253.277
253.358
253.077
251.892
250.526
249.602
249.063
248.799
248.725
248.813
249.809
255.069
271.505
293.306
314.133
333.702
348.628
364.249
371.533
384.959
348.429
348.42
348.39
348.295
348.038
347.431
346.187
343.947
340.514
335.957
330.669
325.034
319.4
313.855
308.543
303.287
298.604
293.21
289.99
284.084
280.715
277.993
273.268
268.989
266.916
265.429
262.705
259.044
256.138
254.997
254.934
254.885
254.325
252.504
250.879
250.206
250.191
250.573
251.604
252.697
253.277
253.358
253.077
251.892
250.526
249.601
249.061
248.797
248.724
248.81
249.806
255.068
271.49
293.273
314.079
333.652
348.578
364.246
371.509
384.831
348.429
348.42
348.39
348.295
348.038
347.431
346.187
343.947
340.514
335.957
330.669
325.034
319.4
313.855
308.543
303.287
298.604
293.21
289.99
284.084
280.715
277.993
273.268
268.989
266.916
265.429
262.705
259.044
256.138
254.997
254.934
254.885
254.325
252.504
250.879
250.206
250.191
250.573
251.604
252.696
253.277
253.358
253.077
251.892
250.525
249.6
249.06
248.796
248.723
248.808
249.802
255.059
271.466
293.25
314.047
333.594
348.507
364.202
371.529
384.749
348.429
348.42
348.39
348.295
348.038
347.431
346.187
343.947
340.514
335.957
330.669
325.034
319.4
313.855
308.543
303.287
298.604
293.21
289.99
284.084
280.715
277.993
273.268
268.989
266.916
265.429
262.705
259.044
256.138
254.997
254.934
254.885
254.325
252.504
250.879
250.206
250.191
250.573
251.604
252.696
253.277
253.358
253.077
251.892
250.526
249.6
249.057
248.795
248.722
248.806
249.796
255.05
271.453
293.223
314.008
333.541
348.475
364.143
371.52
384.745
348.429
348.42
348.39
348.295
348.038
347.431
346.187
343.947
340.514
335.957
330.669
325.034
319.4
313.855
308.543
303.287
298.604
293.21
289.99
284.084
280.715
277.993
273.268
268.989
266.916
265.429
262.705
259.044
256.138
254.997
254.934
254.885
254.325
252.504
250.879
250.206
250.191
250.573
251.604
252.696
253.277
253.358
253.077
251.893
250.526
249.601
249.054
248.794
248.721
248.803
249.794
255.047
271.45
293.215
313.998
333.535
348.454
364.098
371.484
384.803
348.429
348.42
348.39
348.295
348.038
347.431
346.187
343.947
340.514
335.957
330.669
325.034
319.4
313.855
308.543
303.287
298.604
293.21
289.99
284.084
280.715
277.993
273.268
268.989
266.916
265.429
262.705
259.044
256.138
254.997
254.934
254.885
254.325
252.504
250.879
250.206
250.191
250.573
251.604
252.696
253.277
253.357
253.077
251.893
250.526
249.602
249.053
248.794
248.721
248.799
249.792
255.053
271.467
293.218
313.986
333.515
348.406
364.048
371.422
384.823
348.429
348.42
348.39
348.295
348.038
347.431
346.187
343.947
340.514
335.957
330.669
325.034
319.4
313.855
308.543
303.287
298.604
293.21
289.99
284.084
280.715
277.993
273.268
268.989
266.916
265.429
262.705
259.044
256.138
254.997
254.934
254.885
254.325
252.504
250.879
250.206
250.191
250.573
251.603
252.696
253.276
253.357
253.077
251.893
250.526
249.602
249.051
248.793
248.721
248.8
249.789
255.049
271.454
293.206
313.969
333.499
348.395
364.024
371.381
384.842
348.429
348.42
348.39
348.295
348.038
347.431
346.187
343.947
340.514
335.957
330.669
325.034
319.4
313.855
308.543
303.287
298.604
293.21
289.99
284.084
280.715
277.993
273.268
268.989
266.916
265.429
262.705
259.044
256.138
254.997
254.934
254.885
254.325
252.504
250.879
250.206
250.191
250.573
251.603
252.696
253.276
253.357
253.077
251.893
250.526
249.603
249.05
248.793
248.72
248.8
249.79
255.041
271.417
293.175
313.948
333.496
348.409
364.015
371.342
384.865
348.429
348.42
348.39
348.295
348.038
347.431
346.187
343.947
340.514
335.957
330.669
325.034
319.4
313.855
308.543
303.287
298.604
293.21
289.99
284.084
280.715
277.993
273.268
268.989
266.916
265.429
262.705
259.044
256.138
254.997
254.934
254.885
254.325
252.504
250.879
250.206
250.191
250.573
251.603
252.696
253.276
253.357
253.076
251.892
250.526
249.603
249.049
248.793
248.719
248.798
249.792
255.041
271.395
293.157
313.926
333.468
348.397
363.994
371.311
384.83
348.429
348.42
348.39
348.295
348.038
347.431
346.187
343.947
340.514
335.957
330.669
325.034
319.4
313.855
308.543
303.287
298.604
293.21
289.99
284.084
280.715
277.993
273.268
268.989
266.916
265.429
262.705
259.044
256.138
254.997
254.934
254.885
254.325
252.504
250.878
250.206
250.191
250.573
251.603
252.696
253.276
253.356
253.076
251.892
250.526
249.603
249.048
248.793
248.718
248.797
249.795
255.047
271.384
293.143
313.912
333.456
348.374
364.004
371.288
384.744
348.429
348.42
348.39
348.295
348.038
347.431
346.187
343.947
340.514
335.957
330.669
325.034
319.4
313.855
308.543
303.287
298.604
293.21
289.99
284.084
280.715
277.993
273.268
268.989
266.916
265.429
262.705
259.044
256.138
254.997
254.934
254.885
254.325
252.504
250.878
250.206
250.191
250.573
251.603
252.696
253.276
253.356
253.076
251.892
250.526
249.602
249.048
248.792
248.718
248.797
249.797
255.048
271.366
293.137
313.915
333.462
348.361
364.008
371.273
384.686
348.429
348.42
348.39
348.295
348.038
347.431
346.187
343.947
340.514
335.957
330.669
325.034
319.4
313.855
308.543
303.287
298.604
293.21
289.99
284.084
280.715
277.993
273.268
268.989
266.916
265.429
262.705
259.044
256.138
254.997
254.934
254.885
254.325
252.504
250.878
250.206
250.191
250.573
251.603
252.695
253.276
253.355
253.075
251.891
250.525
249.601
249.049
248.793
248.718
248.798
249.798
255.046
271.353
293.117
313.907
333.457
348.347
363.998
371.248
384.651
348.429
348.42
348.39
348.295
348.038
347.431
346.187
343.947
340.514
335.957
330.669
325.034
319.4
313.855
308.543
303.287
298.604
293.21
289.99
284.084
280.715
277.993
273.268
268.989
266.916
265.429
262.705
259.044
256.138
254.997
254.934
254.885
254.325
252.504
250.878
250.206
250.191
250.573
251.603
252.695
253.276
253.355
253.075
251.891
250.524
249.599
249.051
248.793
248.719
248.798
249.8
255.041
271.329
293.109
313.896
333.442
348.332
363.992
371.246
384.616
348.429
348.42
348.39
348.295
348.038
347.431
346.187
343.947
340.514
335.957
330.669
325.034
319.4
313.855
308.543
303.287
298.604
293.21
289.99
284.084
280.715
277.993
273.268
268.989
266.916
265.429
262.705
259.044
256.138
254.997
254.934
254.885
254.325
252.504
250.878
250.206
250.191
250.573
251.603
252.695
253.276
253.355
253.075
251.891
250.523
249.599
249.052
248.793
248.719
248.799
249.799
255.033
271.315
293.085
313.871
333.427
348.299
363.979
371.235
384.604
348.429
348.42
348.39
348.295
348.038
347.431
346.187
343.947
340.514
335.957
330.669
325.034
319.4
313.855
308.543
303.287
298.604
293.21
289.99
284.084
280.715
277.993
273.268
268.989
266.916
265.429
262.705
259.044
256.138
254.997
254.934
254.885
254.325
252.504
250.878
250.205
250.191
250.573
251.603
252.695
253.276
253.354
253.074
251.89
250.522
249.598
249.054
248.794
248.72
248.8
249.798
255.021
271.292
293.06
313.843
333.397
348.251
363.946
371.195
384.592
348.429
348.42
348.39
348.295
348.038
347.431
346.187
343.947
340.514
335.957
330.669
325.034
319.4
313.855
308.543
303.287
298.604
293.21
289.99
284.084
280.715
277.993
273.268
268.989
266.916
265.429
262.705
259.044
256.138
254.997
254.934
254.885
254.325
252.504
250.878
250.205
250.191
250.573
251.603
252.695
253.276
253.354
253.074
251.89
250.521
249.598
249.055
248.794
248.72
248.801
249.798
255.013
271.284
293.053
313.825
333.371
348.198
363.886
371.148
384.576
348.429
348.42
348.39
348.295
348.038
347.431
346.187
343.947
340.514
335.957
330.669
325.034
319.4
313.855
308.543
303.287
298.604
293.21
289.99
284.084
280.715
277.993
273.268
268.989
266.916
265.429
262.705
259.044
256.138
254.997
254.934
254.885
254.325
252.504
250.878
250.205
250.191
250.573
251.603
252.695
253.275
253.354
253.074
251.89
250.521
249.599
249.055
248.794
248.72
248.802
249.797
255.008
271.281
293.046
313.807
333.351
348.169
363.865
371.113
384.559
348.429
348.42
348.39
348.295
348.038
347.431
346.187
343.947
340.514
335.957
330.669
325.034
319.4
313.855
308.543
303.287
298.604
293.21
289.99
284.084
280.715
277.993
273.268
268.989
266.916
265.429
262.705
259.044
256.138
254.997
254.934
254.885
254.325
252.504
250.878
250.205
250.191
250.573
251.603
252.695
253.275
253.353
253.073
251.889
250.52
249.599
249.055
248.794
248.721
248.802
249.795
255.004
271.284
293.057
313.806
333.352
348.158
363.859
371.083
384.554
348.429
348.42
348.39
348.295
348.038
347.431
346.187
343.947
340.514
335.957
330.669
325.034
319.4
313.855
308.543
303.287
298.604
293.21
289.99
284.084
280.715
277.993
273.268
268.989
266.916
265.429
262.705
259.044
256.138
254.997
254.934
254.885
254.325
252.504
250.878
250.205
250.191
250.573
251.603
252.695
253.275
253.353
253.073
251.889
250.52
249.599
249.055
248.795
248.721
248.802
249.793
255.002
271.279
293.057
313.804
333.357
348.157
363.861
371.051
384.535
348.429
348.42
348.39
348.295
348.038
347.431
346.187
343.947
340.514
335.957
330.669
325.034
319.4
313.855
308.543
303.287
298.604
293.21
289.99
284.084
280.715
277.993
273.268
268.989
266.916
265.429
262.705
259.044
256.138
254.997
254.934
254.885
254.325
252.504
250.878
250.205
250.191
250.573
251.603
252.695
253.275
253.353
253.073
251.889
250.519
249.6
249.054
248.795
248.722
248.801
249.792
255.003
271.274
293.042
313.796
333.358
348.141
363.862
371.023
384.501
348.429
348.42
348.39
348.295
348.038
347.431
346.187
343.947
340.514
335.957
330.669
325.034
319.4
313.855
308.543
303.287
298.604
293.21
289.99
284.084
280.715
277.993
273.268
268.989
266.916
265.429
262.705
259.044
256.138
254.997
254.934
254.885
254.325
252.504
250.878
250.205
250.191
250.573
251.603
252.695
253.275
253.353
253.072
251.888
250.519
249.599
249.054
248.795
248.722
248.8
249.791
255.007
271.29
293.058
313.813
333.367
348.137
363.869
371.019
384.46
348.429
348.42
348.39
348.295
348.038
347.431
346.187
343.947
340.514
335.957
330.669
325.034
319.4
313.855
308.543
303.287
298.604
293.21
289.99
284.084
280.715
277.993
273.268
268.989
266.916
265.429
262.705
259.044
256.138
254.997
254.934
254.885
254.325
252.504
250.878
250.205
250.191
250.573
251.603
252.695
253.275
253.353
253.072
251.888
250.519
249.599
249.053
248.795
248.722
248.8
249.791
255.01
271.306
293.094
313.85
333.389
348.147
363.866
371.021
384.42
348.429
348.42
348.39
348.295
348.038
347.431
346.187
343.947
340.514
335.957
330.669
325.034
319.4
313.855
308.543
303.287
298.604
293.21
289.99
284.084
280.715
277.993
273.268
268.989
266.916
265.429
262.705
259.044
256.138
254.997
254.934
254.885
254.325
252.504
250.878
250.205
250.191
250.573
251.603
252.695
253.275
253.353
253.072
251.888
250.519
249.599
249.052
248.795
248.722
248.8
249.791
255.009
271.312
293.116
313.868
333.393
348.143
363.842
371.007
384.385
348.429
348.42
348.39
348.295
348.038
347.431
346.187
343.947
340.514
335.957
330.669
325.034
319.4
313.855
308.543
303.287
298.604
293.21
289.99
284.084
280.715
277.993
273.268
268.989
266.916
265.429
262.705
259.044
256.138
254.997
254.934
254.885
254.325
252.504
250.878
250.205
250.191
250.573
251.603
252.694
253.275
253.352
253.072
251.888
250.519
249.599
249.051
248.794
248.722
248.799
249.79
255.007
271.32
293.135
313.877
333.391
348.145
363.812
370.991
384.341
348.429
348.42
348.39
348.295
348.038
347.431
346.187
343.947
340.514
335.957
330.669
325.034
319.4
313.855
308.543
303.287
298.604
293.21
289.99
284.084
280.715
277.993
273.268
268.989
266.916
265.429
262.705
259.044
256.138
254.997
254.934
254.885
254.325
252.504
250.878
250.205
250.191
250.573
251.603
252.694
253.275
253.352
253.072
251.888
250.519
249.599
249.051
248.794
248.721
248.799
249.789
255.008
271.331
293.153
313.875
333.425
348.1
363.861
370.899
384.355
348.429
348.42
348.39
348.295
348.038
347.431
346.187
343.947
340.514
335.957
330.669
325.034
319.4
313.855
308.543
303.287
298.604
293.21
289.99
284.084
280.715
277.993
273.268
268.989
266.916
265.429
262.705
259.044
256.138
254.997
254.934
254.885
254.325
252.504
250.878
250.205
250.191
250.573
251.603
252.694
253.275
253.352
253.071
251.888
250.519
249.598
249.049
248.794
248.719
248.799
249.784
254.991
271.29
292.947
314.122
332.611
349.366
361.608
374.1
379.325
348.429
348.42
348.39
348.295
348.038
347.431
346.187
343.947
340.514
335.957
330.669
325.034
319.4
313.855
308.543
303.287
298.604
293.21
289.99
284.084
280.715
277.993
273.268
268.989
266.916
265.429
262.705
259.044
256.138
254.997
254.934
254.885
254.325
252.504
250.878
250.205
250.191
250.573
251.602
252.694
253.275
253.352
253.071
251.887
250.518
249.596
249.048
248.793
248.716
248.796
249.782
254.993
271.287
292.908
314.154
332.484
349.5
361.301
374.302
379.139
348.429
348.42
348.39
348.295
348.038
347.431
346.187
343.947
340.514
335.957
330.669
325.034
319.4
313.855
308.543
303.287
298.604
293.21
289.99
284.084
280.715
277.993
273.268
268.989
266.916
265.429
262.705
259.044
256.138
254.997
254.934
254.885
254.325
252.504
250.878
250.205
250.191
250.572
251.602
252.694
253.275
253.352
253.071
251.888
250.518
249.596
249.045
248.793
248.717
248.795
249.785
254.999
271.301
292.93
314.188
332.517
349.506
361.248
374.1
379.127
348.429
348.42
348.39
348.295
348.038
347.431
346.187
343.947
340.514
335.957
330.669
325.034
319.4
313.855
308.543
303.287
298.604
293.21
289.99
284.084
280.715
277.993
273.268
268.989
266.916
265.429
262.705
259.044
256.138
254.997
254.934
254.884
254.325
252.504
250.878
250.205
250.191
250.572
251.602
252.694
253.275
253.351
253.071
251.889
250.519
249.596
249.045
248.793
248.718
248.793
249.78
254.985
271.274
292.89
314.142
332.462
349.455
361.255
374.067
379.083
348.429
348.42
348.39
348.295
348.038
347.431
346.187
343.947
340.514
335.957
330.669
325.034
319.4
313.855
308.543
303.287
298.604
293.21
289.99
284.084
280.715
277.993
273.268
268.989
266.916
265.429
262.705
259.044
256.138
254.997
254.934
254.884
254.325
252.504
250.878
250.205
250.19
250.572
251.602
252.693
253.275
253.351
253.071
251.89
250.522
249.598
249.047
248.794
248.717
248.789
249.769
254.962
271.234
292.851
314.097
332.411
349.375
361.229
374.082
379.083
348.429
348.42
348.39
348.295
348.038
347.431
346.187
343.947
340.514
335.957
330.669
325.034
319.4
313.855
308.543
303.287
298.604
293.21
289.99
284.084
280.715
277.993
273.268
268.989
266.916
265.429
262.705
259.044
256.138
254.997
254.934
254.884
254.325
252.504
250.878
250.205
250.19
250.572
251.601
252.693
253.274
253.352
253.072
251.891
250.524
249.601
249.045
248.793
248.716
248.787
249.76
254.94
271.199
292.824
314.053
332.377
349.342
361.241
374.115
378.881
348.429
348.42
348.39
348.295
348.038
347.431
346.187
343.947
340.514
335.957
330.669
325.034
319.4
313.855
308.543
303.287
298.604
293.21
289.99
284.084
280.715
277.993
273.268
268.989
266.916
265.429
262.705
259.044
256.138
254.997
254.934
254.884
254.325
252.504
250.878
250.205
250.19
250.572
251.601
252.693
253.274
253.352
253.072
251.89
250.526
249.603
249.042
248.79
248.714
248.785
249.756
254.934
271.174
292.793
314.013
332.334
349.269
361.153
373.909
378.879
348.429
348.42
348.39
348.295
348.038
347.431
346.187
343.947
340.514
335.957
330.669
325.034
319.4
313.855
308.543
303.287
298.604
293.21
289.99
284.084
280.715
277.993
273.268
268.989
266.916
265.429
262.705
259.044
256.138
254.997
254.934
254.884
254.325
252.504
250.878
250.205
250.19
250.572
251.601
252.692
253.273
253.352
253.072
251.89
250.527
249.603
249.041
248.788
248.711
248.78
249.757
254.931
271.146
292.773
313.986
332.3
349.201
361.097
373.85
378.875
348.429
348.42
348.39
348.295
348.038
347.431
346.187
343.947
340.514
335.957
330.669
325.034
319.4
313.855
308.543
303.287
298.604
293.21
289.99
284.084
280.715
277.993
273.268
268.989
266.916
265.429
262.705
259.044
256.138
254.997
254.934
254.884
254.325
252.504
250.878
250.205
250.19
250.572
251.601
252.692
253.272
253.352
253.073
251.891
250.527
249.604
249.04
248.787
248.712
248.78
249.756
254.924
271.1
292.723
313.925
332.242
349.128
361.021
373.773
378.799
348.429
348.42
348.39
348.295
348.038
347.431
346.187
343.947
340.514
335.957
330.669
325.034
319.4
313.855
308.543
303.287
298.604
293.21
289.99
284.084
280.715
277.993
273.268
268.989
266.916
265.429
262.705
259.044
256.138
254.997
254.934
254.884
254.325
252.504
250.878
250.205
250.19
250.572
251.6
252.691
253.272
253.351
253.072
251.892
250.528
249.605
249.037
248.787
248.712
248.783
249.761
254.93
271.103
292.701
313.872
332.197
349.076
360.979
373.71
378.702
348.429
348.42
348.39
348.295
348.038
347.431
346.187
343.947
340.514
335.957
330.669
325.034
319.4
313.855
308.543
303.287
298.604
293.21
289.99
284.084
280.715
277.993
273.268
268.989
266.916
265.429
262.705
259.044
256.138
254.997
254.934
254.884
254.325
252.504
250.877
250.205
250.19
250.571
251.6
252.691
253.271
253.351
253.071
251.891
250.528
249.604
249.038
248.783
248.706
248.773
249.746
254.942
271.138
292.707
313.861
332.2
349.039
360.955
373.681
378.706
348.429
348.42
348.39
348.295
348.038
347.431
346.187
343.947
340.514
335.957
330.669
325.034
319.4
313.855
308.543