/*--------------------------------*- C++ -*----------------------------------*\
| =========                 |                                                 |
| \\      /  F ield         | OpenFOAM: The Open Source CFD Toolbox           |
|  \\    /   O peration     | Version:  5.x                                   |
|   \\  /    A nd           | Web:      www.OpenFOAM.org                      |
|    \\/     M anipulation  |                                                 |
\*---------------------------------------------------------------------------*/
/*   Windows 32 and 64 bit porting by blueCAPE: http://www.bluecape.com.pt   *\
|  Based on Windows porting (2.0.x v4) by Symscape: http://www.symscape.com   |
\*---------------------------------------------------------------------------*/
FoamFile
{
    version     2.0;
    format      ascii;
    class       volVectorField;
    location    "0.008";
    object      U;
}
// * * * * * * * * * * * * * * * * * * * * * * * * * * * * * * * * * * * * * //

dimensions      [0 1 -1 0 0 0 0];

internalField   nonuniform List<vector> 
10000
(
(0.00687094 -6.11375e-013 0)
(0.0319285 1.14259e-012 0)
(0.113355 -1.7721e-012 0)
(0.365508 1.16008e-012 0)
(1.04261 1.89786e-012 0)
(2.63684 -6.23843e-013 0)
(5.92877 3.79477e-012 0)
(11.8343 1.00623e-012 0)
(20.9779 2.87775e-012 0)
(33.1704 1.12051e-012 0)
(47.6042 -5.60807e-012 0)
(63.0788 4.14725e-014 0)
(78.8618 -1.00776e-012 0)
(94.4516 1.50284e-012 0)
(109.764 -5.58132e-013 0)
(124.584 -1.69453e-012 0)
(139.084 -6.4585e-012 0)
(152.973 5.05569e-012 0)
(166.429 1.32358e-012 0)
(179.392 3.58157e-012 0)
(191.637 8.07816e-012 0)
(203.433 3.70994e-011 0)
(214.588 1.01948e-010 0)
(225.029 9.28501e-010 0)
(234.808 2.34175e-009 0)
(243.857 1.46393e-008 0)
(252.1 3.98737e-008 0)
(259.53 1.60665e-007 0)
(266.11 4.37877e-007 0)
(271.919 1.31609e-006 0)
(276.94 3.42628e-006 0)
(280.859 8.12613e-006 0)
(283.941 1.81923e-005 0)
(286.59 3.53064e-005 0)
(288.648 6.49101e-005 0)
(290.076 0.000115513 0)
(291.303 0.000199705 0)
(292.27 0.000290333 0)
(292.647 0.000415012 0)
(292.738 0.000499515 0)
(292.79 0.00117254 0)
(292.788 0.00206085 0)
(292.738 0.00215967 0)
(292.723 0.00249864 0)
(292.766 0.00493315 0)
(292.836 0.00595357 0)
(292.926 0.00729396 0)
(293.037 0.00938634 0)
(293.162 0.00554787 0)
(293.295 0.00218519 0)
(293.433 0.00164398 0)
(293.549 0.00502418 0)
(293.565 0.0174927 0)
(293.479 0.0259446 0)
(293.379 0.0185261 0)
(293.269 -0.000244898 0)
(293.124 0.0439798 0)
(292.966 0.0429908 0)
(292.825 0.0462664 0)
(292.694 0.0540167 0)
(0.00687094 -1.89473e-012 0)
(0.0319285 -2.37129e-012 0)
(0.113355 3.86738e-012 0)
(0.365508 3.81788e-012 0)
(1.04261 2.13707e-012 0)
(2.63684 3.64155e-012 0)
(5.92877 -2.22026e-012 0)
(11.8343 4.63535e-012 0)
(20.9779 4.72797e-013 0)
(33.1704 -5.68879e-012 0)
(47.6042 1.6377e-012 0)
(63.0788 -5.79692e-012 0)
(78.8618 2.18861e-012 0)
(94.4516 4.19877e-013 0)
(109.764 2.32704e-012 0)
(124.584 2.22855e-012 0)
(139.084 2.24413e-012 0)
(152.973 -1.595e-012 0)
(166.429 -1.94561e-013 0)
(179.392 2.54391e-012 0)
(191.637 1.34934e-011 0)
(203.433 1.1235e-010 0)
(214.588 3.06423e-010 0)
(225.029 2.75437e-009 0)
(234.808 6.9467e-009 0)
(243.857 4.33688e-008 0)
(252.1 1.1826e-007 0)
(259.53 4.76216e-007 0)
(266.11 1.29928e-006 0)
(271.919 3.90199e-006 0)
(276.94 1.01668e-005 0)
(280.859 2.40951e-005 0)
(283.941 5.397e-005 0)
(286.59 0.000104735 0)
(288.648 0.000192562 0)
(290.076 0.000342469 0)
(291.303 0.000591297 0)
(292.27 0.000862323 0)
(292.647 0.00124082 0)
(292.738 0.00145068 0)
(292.79 0.00335897 0)
(292.788 0.0059611 0)
(292.738 0.00652475 0)
(292.724 0.00969016 0)
(292.766 0.0146745 0)
(292.836 0.0194959 0)
(292.927 0.023078 0)
(293.036 0.0330075 0)
(293.161 0.0316845 0)
(293.295 0.021276 0)
(293.433 0.00242276 0)
(293.552 -0.00309404 0)
(293.568 -0.00044195 0)
(293.479 0.0472951 0)
(293.374 0.0670382 0)
(293.273 0.0742554 0)
(293.131 0.110707 0)
(292.966 0.118661 0)
(292.827 0.141738 0)
(292.695 0.160459 0)
(0.00687094 -1.57343e-013 0)
(0.0319285 -3.92415e-013 0)
(0.113355 7.33791e-012 0)
(0.365508 7.84185e-012 0)
(1.04261 -3.71216e-013 0)
(2.63684 2.80015e-012 0)
(5.92877 4.1701e-012 0)
(11.8343 3.2565e-012 0)
(20.9779 3.06367e-012 0)
(33.1704 -8.15382e-012 0)
(47.6042 -3.89825e-012 0)
(63.0788 -3.34101e-012 0)
(78.8618 -2.36776e-012 0)
(94.4516 4.02355e-012 0)
(109.764 4.72841e-012 0)
(124.584 9.91441e-013 0)
(139.084 -4.02741e-012 0)
(152.973 9.37671e-012 0)
(166.429 6.47973e-012 0)
(179.392 9.48339e-012 0)
(191.637 2.45531e-011 0)
(203.433 1.83567e-010 0)
(214.588 5.00078e-010 0)
(225.029 4.49929e-009 0)
(234.808 1.13816e-008 0)
(243.857 7.09486e-008 0)
(252.1 1.93878e-007 0)
(259.53 7.79797e-007 0)
(266.11 2.13189e-006 0)
(271.919 6.39269e-006 0)
(276.94 1.66831e-005 0)
(280.859 3.9484e-005 0)
(283.941 8.85259e-005 0)
(286.59 0.000171792 0)
(288.648 0.000315825 0)
(290.076 0.000561152 0)
(291.304 0.000967041 0)
(292.27 0.00141275 0)
(292.647 0.00204944 0)
(292.738 0.00236109 0)
(292.79 0.00510533 0)
(292.788 0.00899423 0)
(292.739 0.010196 0)
(292.725 0.0149777 0)
(292.767 0.0200564 0)
(292.837 0.0308852 0)
(292.928 0.0455045 0)
(293.038 0.056862 0)
(293.16 0.0555137 0)
(293.291 0.0396478 0)
(293.429 0.0296452 0)
(293.549 0.0287443 0)
(293.573 0.0107206 0)
(293.489 0.0674108 0)
(293.382 0.122789 0)
(293.275 0.160987 0)
(293.131 0.16249 0)
(292.971 0.185663 0)
(292.832 0.200697 0)
(292.701 0.232696 0)
(0.00687094 -3.70647e-013 0)
(0.0319285 -4.92331e-012 0)
(0.113355 7.56508e-012 0)
(0.365508 4.46598e-013 0)
(1.04261 -9.48613e-013 0)
(2.63684 6.89748e-012 0)
(5.92877 2.05683e-012 0)
(11.8343 6.5464e-012 0)
(20.9779 -1.40237e-012 0)
(33.1704 -1.97094e-012 0)
(47.6042 -9.88229e-013 0)
(63.0788 -5.70442e-012 0)
(78.8618 -1.10126e-012 0)
(94.4516 5.11591e-012 0)
(109.764 2.6665e-012 0)
(124.584 5.88689e-012 0)
(139.084 1.89431e-012 0)
(152.973 3.55649e-012 0)
(166.429 5.93264e-012 0)
(179.392 1.07936e-011 0)
(191.637 3.45817e-011 0)
(203.433 2.50291e-010 0)
(214.588 6.85919e-010 0)
(225.029 6.15831e-009 0)
(234.808 1.5637e-008 0)
(243.857 9.72836e-008 0)
(252.1 2.66629e-007 0)
(259.53 1.07069e-006 0)
(266.11 2.93563e-006 0)
(271.919 8.78375e-006 0)
(276.94 2.2976e-005 0)
(280.859 5.42709e-005 0)
(283.941 0.000121853 0)
(286.59 0.000236472 0)
(288.648 0.00043463 0)
(290.076 0.000771387 0)
(291.304 0.00132567 0)
(292.27 0.00194017 0)
(292.647 0.00282715 0)
(292.738 0.00328608 0)
(292.791 0.00644277 0)
(292.788 0.011769 0)
(292.739 0.0143213 0)
(292.725 0.0187397 0)
(292.769 0.0247332 0)
(292.84 0.0417971 0)
(292.93 0.0638807 0)
(293.038 0.066986 0)
(293.159 0.0578437 0)
(293.291 0.043022 0)
(293.431 0.0497031 0)
(293.549 0.0628654 0)
(293.573 0.0591467 0)
(293.496 0.104742 0)
(293.387 0.165188 0)
(293.277 0.201413 0)
(293.133 0.235757 0)
(292.971 0.261359 0)
(292.833 0.269062 0)
(292.707 0.319743 0)
(0.00687094 2.00602e-012 0)
(0.0319285 -5.9211e-012 0)
(0.113355 7.45144e-012 0)
(0.365508 3.45941e-012 0)
(1.04261 -4.81078e-013 0)
(2.63684 2.10358e-012 0)
(5.92877 3.94932e-012 0)
(11.8343 1.1204e-011 0)
(20.9779 -1.56977e-012 0)
(33.1704 -1.06309e-012 0)
(47.6042 5.92619e-015 0)
(63.0788 -7.43845e-012 0)
(78.8618 -2.75497e-012 0)
(94.4516 7.55104e-012 0)
(109.764 8.44986e-012 0)
(124.584 -2.80296e-013 0)
(139.084 -5.78734e-013 0)
(152.973 8.52464e-012 0)
(166.429 8.39794e-012 0)
(179.392 1.4535e-011 0)
(191.637 4.04079e-011 0)
(203.433 3.08521e-010 0)
(214.588 8.60615e-010 0)
(225.029 7.72955e-009 0)
(234.808 1.97082e-008 0)
(243.857 1.22311e-007 0)
(252.1 3.36456e-007 0)
(259.53 1.34842e-006 0)
(266.11 3.71057e-006 0)
(271.919 1.10725e-005 0)
(276.94 2.90477e-005 0)
(280.859 6.8444e-005 0)
(283.941 0.000153953 0)
(286.59 0.000298796 0)
(288.648 0.000548926 0)
(290.076 0.000973189 0)
(291.304 0.00166529 0)
(292.27 0.00245075 0)
(292.647 0.00354923 0)
(292.738 0.00426633 0)
(292.791 0.00745221 0)
(292.789 0.0142654 0)
(292.739 0.0175722 0)
(292.726 0.0228505 0)
(292.77 0.0308247 0)
(292.842 0.0523713 0)
(292.931 0.0636686 0)
(293.037 0.0652233 0)
(293.157 0.0631837 0)
(293.289 0.0633764 0)
(293.432 0.0724347 0)
(293.55 0.0902654 0)
(293.578 0.0945783 0)
(293.504 0.138492 0)
(293.395 0.193327 0)
(293.284 0.233735 0)
(293.137 0.277538 0)
(292.973 0.326373 0)
(292.839 0.364759 0)
(292.713 0.413891 0)
(0.00687094 4.01606e-012 0)
(0.0319285 -8.33412e-012 0)
(0.113355 7.15967e-012 0)
(0.365508 -1.4173e-012 0)
(1.04261 1.49855e-012 0)
(2.63684 5.1655e-012 0)
(5.92877 2.59997e-012 0)
(11.8343 8.41818e-012 0)
(20.9779 -7.62573e-013 0)
(33.1704 -6.22566e-013 0)
(47.6042 -2.17956e-012 0)
(63.0788 -6.42182e-012 0)
(78.8618 -3.31808e-012 0)
(94.4516 8.35647e-012 0)
(109.764 6.95723e-012 0)
(124.584 2.24212e-012 0)
(139.084 2.92825e-012 0)
(152.973 9.99738e-012 0)
(166.429 6.82088e-012 0)
(179.392 1.57581e-011 0)
(191.637 4.8049e-011 0)
(203.433 3.65498e-010 0)
(214.588 1.02711e-009 0)
(225.029 9.20585e-009 0)
(234.808 2.35885e-008 0)
(243.857 1.45989e-007 0)
(252.1 4.03322e-007 0)
(259.53 1.61271e-006 0)
(266.11 4.45683e-006 0)
(271.919 1.32574e-005 0)
(276.94 3.49007e-005 0)
(280.859 8.19983e-005 0)
(283.941 0.000184837 0)
(286.59 0.000358786 0)
(288.648 0.000658713 0)
(290.076 0.00116655 0)
(291.304 0.00198497 0)
(292.27 0.00294668 0)
(292.647 0.00420892 0)
(292.739 0.00527341 0)
(292.792 0.00824332 0)
(292.79 0.0168351 0)
(292.74 0.0209041 0)
(292.727 0.0271587 0)
(292.772 0.0355584 0)
(292.844 0.058608 0)
(292.932 0.0580322 0)
(293.037 0.0647487 0)
(293.158 0.0733725 0)
(293.291 0.0813375 0)
(293.434 0.0953558 0)
(293.551 0.11552 0)
(293.579 0.132323 0)
(293.508 0.182182 0)
(293.399 0.236677 0)
(293.287 0.277878 0)
(293.145 0.322518 0)
(292.982 0.381536 0)
(292.845 0.421476 0)
(292.719 0.467219 0)
(0.00687094 8.48998e-012 0)
(0.0319285 -9.83388e-012 0)
(0.113355 5.7251e-012 0)
(0.365508 2.29091e-012 0)
(1.04261 -2.82434e-012 0)
(2.63684 2.34001e-012 0)
(5.92877 1.85218e-013 0)
(11.8343 1.34205e-011 0)
(20.9779 -3.73537e-012 0)
(33.1704 1.53306e-012 0)
(47.6042 -2.3333e-012 0)
(63.0788 -2.62898e-012 0)
(78.8618 -2.99361e-012 0)
(94.4516 1.08834e-011 0)
(109.764 1.29528e-012 0)
(124.584 5.47229e-012 0)
(139.084 1.95462e-012 0)
(152.973 9.70429e-012 0)
(166.429 1.06088e-011 0)
(179.392 1.49875e-011 0)
(191.637 5.34205e-011 0)
(203.433 4.19314e-010 0)
(214.588 1.18518e-009 0)
(225.029 1.05855e-008 0)
(234.808 2.72773e-008 0)
(243.857 1.683e-007 0)
(252.1 4.67218e-007 0)
(259.53 1.86342e-006 0)
(266.11 5.17464e-006 0)
(271.919 1.53382e-005 0)
(276.94 4.05382e-005 0)
(280.859 9.49346e-005 0)
(283.941 0.000214522 0)
(286.59 0.000416475 0)
(288.648 0.000764006 0)
(290.076 0.0013515 0)
(291.304 0.00228462 0)
(292.271 0.00342611 0)
(292.647 0.00481498 0)
(292.739 0.00624016 0)
(292.792 0.00920883 0)
(292.79 0.0193372 0)
(292.74 0.024742 0)
(292.727 0.0301195 0)
(292.774 0.040042 0)
(292.845 0.0615185 0)
(292.932 0.0601869 0)
(293.039 0.0692093 0)
(293.159 0.0822241 0)
(293.292 0.0923755 0)
(293.435 0.102855 0)
(293.553 0.122742 0)
(293.585 0.160328 0)
(293.516 0.217914 0)
(293.405 0.270232 0)
(293.293 0.310743 0)
(293.15 0.389365 0)
(292.985 0.44943 0)
(292.85 0.478537 0)
(292.726 0.540083 0)
(0.00687094 1.32104e-011 0)
(0.0319285 -1.01804e-011 0)
(0.113355 6.37791e-012 0)
(0.365508 7.55096e-013 0)
(1.04261 1.91645e-012 0)
(2.63684 1.59165e-012 0)
(5.92877 2.00892e-012 0)
(11.8343 1.20471e-011 0)
(20.9779 -3.58222e-013 0)
(33.1704 -5.56492e-013 0)
(47.6042 -3.24209e-012 0)
(63.0788 -5.41005e-012 0)
(78.8618 -5.683e-012 0)
(94.4516 5.93103e-012 0)
(109.764 3.44044e-012 0)
(124.584 5.60039e-012 0)
(139.084 4.13598e-012 0)
(152.973 1.27909e-011 0)
(166.429 1.09791e-011 0)
(179.392 1.97268e-011 0)
(191.637 6.08721e-011 0)
(203.433 4.68795e-010 0)
(214.588 1.33547e-009 0)
(225.029 1.18704e-008 0)
(234.808 3.07744e-008 0)
(243.857 1.89239e-007 0)
(252.1 5.28152e-007 0)
(259.53 2.10059e-006 0)
(266.11 5.86428e-006 0)
(271.919 1.73155e-005 0)
(276.94 4.59639e-005 0)
(280.859 0.00010726 0)
(283.941 0.000243026 0)
(286.59 0.000471914 0)
(288.648 0.000864832 0)
(290.076 0.00152808 0)
(291.304 0.00256469 0)
(292.271 0.00388749 0)
(292.647 0.0053612 0)
(292.739 0.00717193 0)
(292.793 0.0103485 0)
(292.791 0.0210932 0)
(292.741 0.0280012 0)
(292.728 0.0320939 0)
(292.775 0.0435139 0)
(292.846 0.0585222 0)
(292.933 0.0637069 0)
(293.04 0.0791665 0)
(293.161 0.094885 0)
(293.294 0.109395 0)
(293.437 0.126861 0)
(293.557 0.152431 0)
(293.59 0.205379 0)
(293.52 0.260067 0)
(293.408 0.297314 0)
(293.3 0.344615 0)
(293.161 0.411477 0)
(292.991 0.507051 0)
(292.856 0.582794 0)
(292.736 0.625139 0)
(0.00687094 1.60352e-011 0)
(0.0319285 -1.04575e-011 0)
(0.113355 2.46936e-012 0)
(0.365508 3.21806e-012 0)
(1.04261 1.53095e-012 0)
(2.63684 1.14786e-012 0)
(5.92877 3.61734e-014 0)
(11.8343 1.63685e-011 0)
(20.9779 -1.63327e-012 0)
(33.1704 2.96563e-012 0)
(47.6042 3.82243e-012 0)
(63.0788 -7.29908e-012 0)
(78.8618 2.31026e-012 0)
(94.4516 5.94517e-012 0)
(109.764 1.89076e-012 0)
(124.584 7.49655e-012 0)
(139.084 2.86362e-012 0)
(152.973 1.05226e-011 0)
(166.429 9.02479e-012 0)
(179.392 1.79877e-011 0)
(191.637 6.13208e-011 0)
(203.433 5.13667e-010 0)
(214.588 1.47527e-009 0)
(225.029 1.30594e-008 0)
(234.808 3.40789e-008 0)
(243.857 2.08818e-007 0)
(252.1 5.86148e-007 0)
(259.53 2.32436e-006 0)
(266.11 6.52606e-006 0)
(271.919 1.91909e-005 0)
(276.94 5.11815e-005 0)
(280.859 0.000118986 0)
(283.941 0.000270368 0)
(286.59 0.000525151 0)
(288.648 0.000961264 0)
(290.076 0.00169627 0)
(291.304 0.00282658 0)
(292.271 0.00432484 0)
(292.648 0.00585904 0)
(292.739 0.0080555 0)
(292.794 0.0114139 0)
(292.792 0.022438 0)
(292.742 0.0309426 0)
(292.729 0.0361708 0)
(292.777 0.0482823 0)
(292.847 0.0577095 0)
(292.934 0.0708659 0)
(293.042 0.092463 0)
(293.162 0.107888 0)
(293.295 0.121465 0)
(293.44 0.142589 0)
(293.562 0.176441 0)
(293.596 0.244384 0)
(293.525 0.29384 0)
(293.413 0.338185 0)
(293.304 0.406769 0)
(293.169 0.460947 0)
(293.006 0.55365 0)
(292.864 0.657467 0)
(292.734 0.709998 0)
(0.00687094 1.81881e-011 0)
(0.0319285 -9.66621e-012 0)
(0.113355 4.96462e-012 0)
(0.365508 7.60712e-013 0)
(1.04261 5.4036e-012 0)
(2.63684 9.4146e-013 0)
(5.92877 1.09442e-012 0)
(11.8343 1.56661e-011 0)
(20.9779 4.0144e-013 0)
(33.1704 2.11026e-012 0)
(47.6042 -4.23617e-012 0)
(63.0788 -3.72753e-012 0)
(78.8618 -4.66304e-012 0)
(94.4516 1.76413e-012 0)
(109.764 4.00109e-012 0)
(124.584 7.49396e-012 0)
(139.084 1.71007e-012 0)
(152.973 1.20529e-011 0)
(166.429 1.19131e-011 0)
(179.392 1.97396e-011 0)
(191.637 7.05272e-011 0)
(203.433 5.56606e-010 0)
(214.588 1.60628e-009 0)
(225.029 1.41565e-008 0)
(234.808 3.71967e-008 0)
(243.857 2.27065e-007 0)
(252.1 6.4125e-007 0)
(259.53 2.53495e-006 0)
(266.11 7.16038e-006 0)
(271.919 2.09664e-005 0)
(276.94 5.6195e-005 0)
(280.859 0.000130127 0)
(283.941 0.000296579 0)
(286.59 0.000576219 0)
(288.648 0.00105344 0)
(290.076 0.00185606 0)
(291.304 0.00307187 0)
(292.271 0.00473245 0)
(292.648 0.00632664 0)
(292.739 0.00886825 0)
(292.794 0.0123477 0)
(292.793 0.0237176 0)
(292.742 0.0332534 0)
(292.73 0.0406111 0)
(292.778 0.0517745 0)
(292.848 0.0602544 0)
(292.936 0.0816787 0)
(293.044 0.102516 0)
(293.164 0.119014 0)
(293.297 0.135714 0)
(293.443 0.158992 0)
(293.568 0.196938 0)
(293.601 0.26604 0)
(293.529 0.314234 0)
(293.419 0.37143 0)
(293.312 0.449927 0)
(293.177 0.531419 0)
(293.015 0.609517 0)
(292.874 0.696241 0)
(292.744 0.790079 0)
(0.00687094 2.03633e-011 0)
(0.0319285 -1.29941e-011 0)
(0.113355 4.41132e-012 0)
(0.365508 8.32342e-013 0)
(1.04261 4.29597e-012 0)
(2.63684 -2.86689e-013 0)
(5.92877 -4.39352e-013 0)
(11.8343 1.81427e-011 0)
(20.9779 3.89147e-013 0)
(33.1704 3.38785e-012 0)
(47.6042 5.86056e-012 0)
(63.0788 -1.4685e-012 0)
(78.8618 2.29393e-012 0)
(94.4516 2.78537e-012 0)
(109.764 6.04701e-012 0)
(124.584 6.35971e-012 0)
(139.084 3.14418e-012 0)
(152.973 6.83286e-012 0)
(166.429 9.76893e-012 0)
(179.392 1.86689e-011 0)
(191.637 7.26125e-011 0)
(203.433 5.92055e-010 0)
(214.588 1.72928e-009 0)
(225.029 1.51617e-008 0)
(234.808 4.01295e-008 0)
(243.857 2.44011e-007 0)
(252.1 6.93503e-007 0)
(259.53 2.7327e-006 0)
(266.11 7.76764e-006 0)
(271.919 2.26446e-005 0)
(276.94 6.10087e-005 0)
(280.859 0.000140701 0)
(283.941 0.000321691 0)
(286.59 0.000625159 0)
(288.648 0.0011415 0)
(290.076 0.00200749 0)
(291.304 0.00330177 0)
(292.271 0.00510909 0)
(292.648 0.00676721 0)
(292.74 0.00963362 0)
(292.795 0.01319 0)
(292.794 0.0251668 0)
(292.743 0.0356661 0)
(292.731 0.0452134 0)
(292.779 0.05251 0)
(292.85 0.0627225 0)
(292.939 0.0912083 0)
(293.046 0.110343 0)
(293.165 0.128272 0)
(293.299 0.145931 0)
(293.446 0.169828 0)
(293.572 0.210698 0)
(293.607 0.27216 0)
(293.534 0.332467 0)
(293.425 0.395389 0)
(293.32 0.489194 0)
(293.185 0.583038 0)
(293.024 0.664289 0)
(292.885 0.757056 0)
(292.754 0.861632 0)
(0.00687094 2.22406e-011 0)
(0.0319285 -1.22038e-011 0)
(0.113355 4.636e-012 0)
(0.365508 -2.41179e-013 0)
(1.04261 4.12802e-012 0)
(2.63684 -6.8207e-013 0)
(5.92877 2.60598e-012 0)
(11.8343 1.71734e-011 0)
(20.9779 4.82022e-012 0)
(33.1704 7.39425e-013 0)
(47.6042 2.19834e-013 0)
(63.0788 -7.28547e-012 0)
(78.8618 1.46505e-013 0)
(94.4516 4.64731e-012 0)
(109.764 1.55644e-012 0)
(124.584 4.71213e-012 0)
(139.084 5.1944e-013 0)
(152.973 1.0776e-011 0)
(166.429 1.11711e-011 0)
(179.392 2.04887e-011 0)
(191.637 7.65489e-011 0)
(203.433 6.25875e-010 0)
(214.588 1.84225e-009 0)
(225.029 1.60798e-008 0)
(234.808 4.28816e-008 0)
(243.857 2.59701e-007 0)
(252.1 7.42973e-007 0)
(259.53 2.91799e-006 0)
(266.11 8.34834e-006 0)
(271.919 2.42287e-005 0)
(276.94 6.56269e-005 0)
(280.859 0.000150727 0)
(283.941 0.000345733 0)
(286.59 0.000672027 0)
(288.648 0.00122557 0)
(290.076 0.00215074 0)
(291.304 0.00351718 0)
(292.271 0.0054566 0)
(292.648 0.00717342 0)
(292.74 0.0103783 0)
(292.796 0.014107 0)
(292.795 0.0263404 0)
(292.744 0.0375292 0)
(292.732 0.0485913 0)
(292.779 0.0550391 0)
(292.852 0.0657802 0)
(292.941 0.0960501 0)
(293.048 0.114741 0)
(293.167 0.132753 0)
(293.301 0.151751 0)
(293.449 0.175348 0)
(293.577 0.227714 0)
(293.612 0.283411 0)
(293.539 0.340363 0)
(293.433 0.418773 0)
(293.331 0.528273 0)
(293.194 0.645355 0)
(293.033 0.716373 0)
(292.897 0.817826 0)
(292.765 0.926804 0)
(0.00687094 2.59732e-011 0)
(0.0319285 -1.40602e-011 0)
(0.113355 3.14191e-012 0)
(0.365508 -1.03338e-012 0)
(1.04261 3.66984e-012 0)
(2.63684 5.40108e-013 0)
(5.92877 -1.79117e-012 0)
(11.8343 1.909e-011 0)
(20.9779 8.26861e-012 0)
(33.1704 4.72548e-012 0)
(47.6042 5.56824e-012 0)
(63.0788 -1.16956e-012 0)
(78.8618 -1.32105e-012 0)
(94.4516 9.42036e-013 0)
(109.764 4.11267e-012 0)
(124.584 9.12665e-012 0)
(139.084 4.91935e-012 0)
(152.973 5.88859e-012 0)
(166.429 8.44009e-012 0)
(179.392 1.88014e-011 0)
(191.637 7.93156e-011 0)
(203.433 6.56342e-010 0)
(214.588 1.94768e-009 0)
(225.029 1.69147e-008 0)
(234.808 4.54574e-008 0)
(243.857 2.74177e-007 0)
(252.1 7.89728e-007 0)
(259.53 3.09124e-006 0)
(266.11 8.90299e-006 0)
(271.919 2.5722e-005 0)
(276.94 7.00541e-005 0)
(280.859 0.000160226 0)
(283.941 0.000368739 0)
(286.59 0.000716876 0)
(288.648 0.00130576 0)
(290.076 0.00228604 0)
(291.304 0.00371898 0)
(292.271 0.00577661 0)
(292.648 0.00754834 0)
(292.74 0.011077 0)
(292.796 0.0152012 0)
(292.796 0.0274137 0)
(292.745 0.0396907 0)
(292.732 0.0532997 0)
(292.78 0.0631174 0)
(292.854 0.0728215 0)
(292.943 0.0951305 0)
(293.049 0.117445 0)
(293.169 0.133656 0)
(293.303 0.153873 0)
(293.453 0.179694 0)
(293.582 0.230418 0)
(293.617 0.292556 0)
(293.545 0.360518 0)
(293.442 0.463201 0)
(293.343 0.565992 0)
(293.203 0.683501 0)
(293.041 0.766847 0)
(292.908 0.889583 0)
(292.776 0.995686 0)
(0.00687094 2.53309e-011 0)
(0.0319285 -1.08406e-011 0)
(0.113355 -7.53669e-013 0)
(0.365508 1.85991e-012 0)
(1.04261 2.40868e-012 0)
(2.63684 -9.16403e-013 0)
(5.92877 -6.03643e-013 0)
(11.8343 2.20062e-011 0)
(20.9779 6.36572e-012 0)
(33.1704 2.9394e-012 0)
(47.6042 1.71534e-012 0)
(63.0788 -4.03171e-012 0)
(78.8618 1.62976e-012 0)
(94.4516 3.30577e-012 0)
(109.764 2.89075e-012 0)
(124.584 2.64998e-012 0)
(139.084 2.10407e-012 0)
(152.973 7.27334e-012 0)
(166.429 1.06399e-011 0)
(179.392 2.03739e-011 0)
(191.637 8.34947e-011 0)
(203.433 6.82325e-010 0)
(214.588 2.04478e-009 0)
(225.029 1.76704e-008 0)
(234.808 4.7866e-008 0)
(243.857 2.87497e-007 0)
(252.1 8.33847e-007 0)
(259.53 3.25294e-006 0)
(266.11 9.43215e-006 0)
(271.919 2.71281e-005 0)
(276.94 7.42951e-005 0)
(280.859 0.000169218 0)
(283.941 0.000390744 0)
(286.59 0.000759758 0)
(288.648 0.0013822 0)
(290.076 0.00241369 0)
(291.305 0.00390803 0)
(292.272 0.00607005 0)
(292.649 0.00789281 0)
(292.741 0.0117065 0)
(292.797 0.0164695 0)
(292.797 0.028502 0)
(292.746 0.0415949 0)
(292.734 0.0589508 0)
(292.781 0.0708251 0)
(292.855 0.0793521 0)
(292.945 0.0899748 0)
(293.051 0.117022 0)
(293.17 0.13765 0)
(293.305 0.160365 0)
(293.456 0.189185 0)
(293.587 0.232007 0)
(293.623 0.309607 0)
(293.554 0.393254 0)
(293.451 0.514846 0)
(293.351 0.607173 0)
(293.212 0.700327 0)
(293.053 0.813362 0)
(292.921 0.958013 0)
(292.787 1.07796 0)
(0.00687094 2.62383e-011 0)
(0.0319285 -1.36319e-011 0)
(0.113355 -8.06999e-014 0)
(0.365508 6.87232e-013 0)
(1.04261 2.5775e-012 0)
(2.63684 6.87675e-013 0)
(5.92877 1.2368e-012 0)
(11.8343 2.21825e-011 0)
(20.9779 9.48691e-012 0)
(33.1704 4.29844e-012 0)
(47.6042 3.59011e-012 0)
(63.0788 -6.60499e-013 0)
(78.8618 -4.45685e-013 0)
(94.4516 -3.54712e-014 0)
(109.764 9.43533e-012 0)
(124.584 5.67676e-012 0)
(139.084 5.63412e-012 0)
(152.973 4.35229e-012 0)
(166.429 8.50437e-012 0)
(179.392 1.97882e-011 0)
(191.637 8.73678e-011 0)
(203.433 7.04512e-010 0)
(214.588 2.13625e-009 0)
(225.029 1.83514e-008 0)
(234.808 5.01129e-008 0)
(243.857 2.99715e-007 0)
(252.1 8.75413e-007 0)
(259.53 3.40357e-006 0)
(266.11 9.93641e-006 0)
(271.919 2.84507e-005 0)
(276.94 7.83546e-005 0)
(280.859 0.000177728 0)
(283.941 0.000411782 0)
(286.59 0.000800735 0)
(288.648 0.001455 0)
(290.076 0.00253401 0)
(291.305 0.00408525 0)
(292.272 0.00633877 0)
(292.649 0.00820334 0)
(292.741 0.0122825 0)
(292.798 0.0178385 0)
(292.798 0.0298525 0)
(292.748 0.0433065 0)
(292.735 0.0601654 0)
(292.782 0.0729378 0)
(292.855 0.0869857 0)
(292.947 0.100282 0)
(293.054 0.117819 0)
(293.173 0.141269 0)
(293.308 0.167806 0)
(293.459 0.201049 0)
(293.593 0.245875 0)
(293.631 0.328151 0)
(293.563 0.419013 0)
(293.461 0.542746 0)
(293.358 0.639019 0)
(293.221 0.742579 0)
(293.067 0.898644 0)
(292.936 1.05168 0)
(292.801 1.15924 0)
(0.00687094 2.41951e-011 0)
(0.0319285 -1.06149e-011 0)
(0.113355 -4.01428e-012 0)
(0.365508 -5.7816e-013 0)
(1.04261 2.7523e-012 0)
(2.63684 -5.05476e-013 0)
(5.92877 3.23337e-012 0)
(11.8343 2.279e-011 0)
(20.9779 6.59126e-012 0)
(33.1704 2.71988e-012 0)
(47.6042 3.70213e-012 0)
(63.0788 -1.57027e-012 0)
(78.8618 -1.98662e-012 0)
(94.4516 2.02147e-012 0)
(109.764 7.18171e-012 0)
(124.584 6.37331e-012 0)
(139.084 1.62702e-012 0)
(152.973 7.02066e-012 0)
(166.429 1.08023e-011 0)
(179.392 2.14633e-011 0)
(191.637 8.88868e-011 0)
(203.433 7.23352e-010 0)
(214.588 2.21856e-009 0)
(225.029 1.89597e-008 0)
(234.808 5.22026e-008 0)
(243.857 3.10888e-007 0)
(252.1 9.14512e-007 0)
(259.53 3.54366e-006 0)
(266.11 1.04164e-005 0)
(271.919 2.96937e-005 0)
(276.94 8.22373e-005 0)
(280.859 0.000185776 0)
(283.941 0.000431883 0)
(286.59 0.000839873 0)
(288.648 0.00152428 0)
(290.076 0.00264728 0)
(291.305 0.00425179 0)
(292.272 0.00658201 0)
(292.649 0.00849247 0)
(292.741 0.0128252 0)
(292.798 0.0191371 0)
(292.799 0.031502 0)
(292.749 0.045661 0)
(292.736 0.0582223 0)
(292.783 0.0712706 0)
(292.857 0.0936252 0)
(292.948 0.120431 0)
(293.055 0.119312 0)
(293.175 0.140966 0)
(293.31 0.173796 0)
(293.463 0.209092 0)
(293.598 0.255535 0)
(293.638 0.336694 0)
(293.572 0.430921 0)
(293.47 0.55317 0)
(293.367 0.660319 0)
(293.236 0.79289 0)
(293.084 0.976015 0)
(292.947 1.13224 0)
(292.809 1.28271 0)
(0.00687094 2.31997e-011 0)
(0.0319285 -1.37105e-011 0)
(0.113355 -2.97116e-012 0)
(0.365508 -2.58669e-012 0)
(1.04261 2.44095e-012 0)
(2.63684 -1.03983e-013 0)
(5.92877 3.25803e-012 0)
(11.8343 2.28859e-011 0)
(20.9779 1.18294e-011 0)
(33.1704 1.80195e-012 0)
(47.6042 3.47323e-012 0)
(63.0788 -3.70825e-014 0)
(78.8618 -2.35257e-012 0)
(94.4516 -1.69247e-012 0)
(109.764 7.4228e-012 0)
(124.584 4.03133e-012 0)
(139.084 8.14069e-012 0)
(152.973 4.91444e-012 0)
(166.429 1.05569e-011 0)
(179.392 2.22724e-011 0)
(191.637 9.37635e-011 0)
(203.433 7.43562e-010 0)
(214.588 2.29575e-009 0)
(225.029 1.95037e-008 0)
(234.808 5.41448e-008 0)
(243.857 3.21075e-007 0)
(252.1 9.51237e-007 0)
(259.53 3.67372e-006 0)
(266.11 1.08728e-005 0)
(271.919 3.08608e-005 0)
(276.94 8.59482e-005 0)
(280.859 0.000193387 0)
(283.941 0.000451076 0)
(286.59 0.000877234 0)
(288.648 0.00159019 0)
(290.077 0.00275387 0)
(291.305 0.00440846 0)
(292.272 0.00680066 0)
(292.649 0.00876999 0)
(292.742 0.0133317 0)
(292.799 0.0204511 0)
(292.8 0.0330073 0)
(292.75 0.0478241 0)
(292.737 0.0599632 0)
(292.785 0.0749723 0)
(292.859 0.0989592 0)
(292.949 0.12868 0)
(293.055 0.120529 0)
(293.177 0.138979 0)
(293.313 0.177051 0)
(293.466 0.215814 0)
(293.603 0.265914 0)
(293.645 0.34795 0)
(293.58 0.436298 0)
(293.479 0.549668 0)
(293.378 0.686735 0)
(293.251 0.839947 0)
(293.1 1.01424 0)
(292.966 1.17336 0)
(292.829 1.40504 0)
(0.00687094 2.12183e-011 0)
(0.0319285 -1.08082e-011 0)
(0.113355 -5.08992e-012 0)
(0.365508 -3.00024e-012 0)
(1.04261 2.14482e-012 0)
(2.63684 -2.52687e-012 0)
(5.92877 3.63201e-012 0)
(11.8343 2.24652e-011 0)
(20.9779 1.07899e-011 0)
(33.1704 2.49695e-012 0)
(47.6042 2.81639e-012 0)
(63.0788 -3.58401e-012 0)
(78.8618 -8.29421e-013 0)
(94.4516 2.76096e-013 0)
(109.764 5.07196e-012 0)
(124.584 4.44567e-012 0)
(139.084 5.59842e-012 0)
(152.973 7.54592e-012 0)
(166.429 1.0794e-011 0)
(179.392 2.27631e-011 0)
(191.637 9.39562e-011 0)
(203.433 7.57417e-010 0)
(214.588 2.36761e-009 0)
(225.029 1.99847e-008 0)
(234.808 5.5944e-008 0)
(243.857 3.30334e-007 0)
(252.1 9.85681e-007 0)
(259.53 3.79428e-006 0)
(266.11 1.13063e-005 0)
(271.919 3.1956e-005 0)
(276.94 8.94922e-005 0)
(280.859 0.000200581 0)
(283.941 0.000469399 0)
(286.59 0.000912869 0)
(288.648 0.00165286 0)
(290.077 0.0028541 0)
(291.305 0.00455584 0)
(292.272 0.00699764 0)
(292.649 0.00903835 0)
(292.742 0.0137998 0)
(292.8 0.0217985 0)
(292.801 0.0340555 0)
(292.751 0.0491954 0)
(292.738 0.0650215 0)
(292.786 0.0848922 0)
(292.862 0.107902 0)
(292.949 0.128363 0)
(293.055 0.125698 0)
(293.179 0.136755 0)
(293.317 0.171573 0)
(293.47 0.217708 0)
(293.609 0.274117 0)
(293.651 0.3604 0)
(293.587 0.432533 0)
(293.49 0.53174 0)
(293.392 0.706254 0)
(293.265 0.893082 0)
(293.115 1.05558 0)
(292.986 1.23148 0)
(292.849 1.47561 0)
(0.00687094 1.73215e-011 0)
(0.0319285 -1.55067e-011 0)
(0.113355 -2.04049e-012 0)
(0.365508 -5.74439e-012 0)
(1.04261 5.96243e-013 0)
(2.63684 -1.01827e-013 0)
(5.92877 2.17324e-012 0)
(11.8343 2.3552e-011 0)
(20.9779 1.20808e-011 0)
(33.1704 9.44303e-013 0)
(47.6042 -2.28853e-012 0)
(63.0788 1.2178e-012 0)
(78.8618 -2.79493e-012 0)
(94.4516 5.50711e-013 0)
(109.764 6.679e-012 0)
(124.584 9.87268e-012 0)
(139.084 6.37159e-012 0)
(152.973 7.12624e-012 0)
(166.429 1.02826e-011 0)
(179.392 2.36162e-011 0)
(191.637 9.77974e-011 0)
(203.433 7.71962e-010 0)
(214.588 2.43414e-009 0)
(225.029 2.04092e-008 0)
(234.808 5.76083e-008 0)
(243.857 3.38725e-007 0)
(252.1 1.01794e-006 0)
(259.53 3.90587e-006 0)
(266.11 1.17176e-005 0)
(271.919 3.2983e-005 0)
(276.94 9.28745e-005 0)
(280.859 0.00020738 0)
(283.941 0.000486883 0)
(286.591 0.000946833 0)
(288.649 0.00171245 0)
(290.077 0.00294828 0)
(291.305 0.00469458 0)
(292.272 0.00717462 0)
(292.65 0.0092995 0)
(292.743 0.0142328 0)
(292.8 0.0230165 0)
(292.802 0.0348909 0)
(292.752 0.0503468 0)
(292.74 0.0687197 0)
(292.788 0.0937993 0)
(292.863 0.114997 0)
(292.95 0.126788 0)
(293.056 0.131756 0)
(293.181 0.139982 0)
(293.32 0.1678 0)
(293.474 0.217465 0)
(293.614 0.277111 0)
(293.657 0.369071 0)
(293.592 0.427788 0)
(293.501 0.530959 0)
(293.408 0.732848 0)
(293.28 0.938319 0)
(293.13 1.09514 0)
(293.006 1.28327 0)
(292.868 1.54981 0)
(0.00687094 1.47727e-011 0)
(0.0319285 -1.31374e-011 0)
(0.113355 -4.26219e-012 0)
(0.365508 -6.03235e-012 0)
(1.04261 2.63619e-012 0)
(2.63684 -3.20794e-013 0)
(5.92877 1.28804e-012 0)
(11.8343 2.27569e-011 0)
(20.9779 1.21986e-011 0)
(33.1704 1.85768e-012 0)
(47.6042 2.57602e-012 0)
(63.0788 -2.29717e-012 0)
(78.8618 2.41288e-013 0)
(94.4516 -2.35194e-012 0)
(109.764 1.01196e-011 0)
(124.584 4.55527e-012 0)
(139.084 6.57409e-012 0)
(152.973 7.5014e-012 0)
(166.429 1.15824e-011 0)
(179.392 2.33308e-011 0)
(191.637 9.80281e-011 0)
(203.433 7.82554e-010 0)
(214.588 2.49232e-009 0)
(225.029 2.07799e-008 0)
(234.808 5.91432e-008 0)
(243.857 3.463e-007 0)
(252.1 1.04811e-006 0)
(259.53 4.00899e-006 0)
(266.11 1.21075e-005 0)
(271.919 3.39456e-005 0)
(276.94 9.61001e-005 0)
(280.859 0.000213806 0)
(283.941 0.000503557 0)
(286.591 0.000979206 0)
(288.649 0.00176906 0)
(290.077 0.00303674 0)
(291.305 0.00482516 0)
(292.272 0.00733435 0)
(292.65 0.00954999 0)
(292.743 0.0146379 0)
(292.801 0.0240439 0)
(292.803 0.0355761 0)
(292.753 0.0512204 0)
(292.741 0.071082 0)
(292.79 0.100866 0)
(292.864 0.121376 0)
(292.951 0.132577 0)
(293.056 0.14134 0)
(293.182 0.149312 0)
(293.323 0.171267 0)
(293.478 0.220962 0)
(293.62 0.282188 0)
(293.662 0.370121 0)
(293.598 0.439158 0)
(293.514 0.55745 0)
(293.425 0.765878 0)
(293.295 0.967527 0)
(293.144 1.15545 0)
(293.028 1.3578 0)
(292.89 1.63398 0)
(0.00687094 1.02596e-011 0)
(0.0319285 -1.73231e-011 0)
(0.113355 -3.56608e-013 0)
(0.365508 -6.78152e-012 0)
(1.04261 1.75675e-012 0)
(2.63684 -1.15932e-012 0)
(5.92877 1.24146e-012 0)
(11.8343 2.25294e-011 0)
(20.9779 1.14441e-011 0)
(33.1704 4.27653e-013 0)
(47.6042 -9.66908e-013 0)
(63.0788 2.21098e-012 0)
(78.8618 -1.10701e-012 0)
(94.4516 1.81794e-012 0)
(109.764 9.14965e-012 0)
(124.584 5.37524e-012 0)
(139.084 6.70577e-012 0)
(152.973 6.08916e-012 0)
(166.429 1.21982e-011 0)
(179.392 2.44735e-011 0)
(191.637 1.02278e-010 0)
(203.433 7.94182e-010 0)
(214.588 2.54573e-009 0)
(225.029 2.11025e-008 0)