/*--------------------------------*- C++ -*----------------------------------*\
| =========                 |                                                 |
| \\      /  F ield         | OpenFOAM: The Open Source CFD Toolbox           |
|  \\    /   O peration     | Version:  5.x                                   |
|   \\  /    A nd           | Web:      www.OpenFOAM.org                      |
|    \\/     M anipulation  |                                                 |
\*---------------------------------------------------------------------------*/
/*   Windows 32 and 64 bit porting by blueCAPE: http://www.bluecape.com.pt   *\
|  Based on Windows porting (2.0.x v4) by Symscape: http://www.symscape.com   |
\*---------------------------------------------------------------------------*/
FoamFile
{
    version     2.0;
    format      ascii;
    class       volVectorField;
    location    "0.008";
    object      U_0;
}
// * * * * * * * * * * * * * * * * * * * * * * * * * * * * * * * * * * * * * //

dimensions      [0 1 -1 0 0 0 0];

internalField   nonuniform List<vector> 
10000
(
(0.0068522 -6.36936e-013 0)
(0.0318468 1.13133e-012 0)
(0.113088 -1.75386e-012 0)
(0.364738 1.15597e-012 0)
(1.04068 1.90234e-012 0)
(2.63258 -6.41995e-013 0)
(5.92057 3.78613e-012 0)
(11.8208 1.00188e-012 0)
(20.9587 2.85757e-012 0)
(33.1469 1.0791e-012 0)
(47.5786 -5.60562e-012 0)
(63.0531 6.06952e-014 0)
(78.8371 -1.03113e-012 0)
(94.4284 1.51473e-012 0)
(109.743 -5.59602e-013 0)
(124.564 -1.69549e-012 0)
(139.066 -6.4562e-012 0)
(152.957 5.08632e-012 0)
(166.414 1.35302e-012 0)
(179.379 3.5877e-012 0)
(191.626 8.08312e-012 0)
(203.423 3.69227e-011 0)
(214.579 1.01525e-010 0)
(225.022 9.25355e-010 0)
(234.802 2.33329e-009 0)
(243.852 1.46046e-008 0)
(252.096 3.97636e-008 0)
(259.528 1.60398e-007 0)
(266.109 4.36958e-007 0)
(271.919 1.31443e-006 0)
(276.94 3.42138e-006 0)
(280.858 8.12051e-006 0)
(283.941 1.81809e-005 0)
(286.591 3.52899e-005 0)
(288.648 6.48861e-005 0)
(290.076 0.000115464 0)
(291.305 0.000199748 0)
(292.271 0.000290689 0)
(292.646 0.000414482 0)
(292.737 0.000500806 0)
(292.789 0.00117329 0)
(292.787 0.00206558 0)
(292.738 0.00217264 0)
(292.723 0.00249505 0)
(292.766 0.00490239 0)
(292.836 0.0058623 0)
(292.926 0.00735112 0)
(293.037 0.00924543 0)
(293.162 0.00537961 0)
(293.296 0.00212969 0)
(293.433 0.00160138 0)
(293.549 0.00522655 0)
(293.564 0.0179773 0)
(293.478 0.0264032 0)
(293.379 0.018927 0)
(293.269 -0.00148788 0)
(293.121 0.0428062 0)
(292.964 0.0438653 0)
(292.825 0.0471223 0)
(292.694 0.0543847 0)
(0.0068522 -1.87367e-012 0)
(0.0318468 -2.39336e-012 0)
(0.113088 3.86739e-012 0)
(0.364738 3.80693e-012 0)
(1.04068 2.12476e-012 0)
(2.63258 3.6373e-012 0)
(5.92057 -2.21572e-012 0)
(11.8208 4.63398e-012 0)
(20.9587 4.29334e-013 0)
(33.1469 -5.73167e-012 0)
(47.5786 1.64837e-012 0)
(63.0531 -5.76802e-012 0)
(78.8371 2.1508e-012 0)
(94.4284 4.389e-013 0)
(109.743 2.35901e-012 0)
(124.564 2.24101e-012 0)
(139.066 2.26636e-012 0)
(152.957 -1.56686e-012 0)
(166.414 -1.49067e-013 0)
(179.379 2.55943e-012 0)
(191.626 1.34488e-011 0)
(203.423 1.11822e-010 0)
(214.579 3.05132e-010 0)
(225.022 2.74493e-009 0)
(234.802 6.92154e-009 0)
(243.852 4.32657e-008 0)
(252.096 1.17933e-007 0)
(259.528 4.75423e-007 0)
(266.109 1.29655e-006 0)
(271.919 3.89708e-006 0)
(276.94 1.01522e-005 0)
(280.858 2.40784e-005 0)
(283.941 5.39361e-005 0)
(286.591 0.000104686 0)
(288.648 0.000192492 0)
(290.076 0.000342322 0)
(291.305 0.00059144 0)
(292.271 0.000863248 0)
(292.646 0.00124011 0)
(292.737 0.00145375 0)
(292.79 0.00335733 0)
(292.787 0.0059684 0)
(292.738 0.00654852 0)
(292.724 0.00964937 0)
(292.766 0.0145639 0)
(292.836 0.0192227 0)
(292.927 0.0232773 0)
(293.036 0.0327085 0)
(293.161 0.031312 0)
(293.295 0.0208274 0)
(293.434 0.00165235 0)
(293.552 -0.00361286 0)
(293.567 0.0026268 0)
(293.478 0.0481098 0)
(293.374 0.0673107 0)
(293.273 0.0729166 0)
(293.129 0.109225 0)
(292.965 0.119842 0)
(292.827 0.142904 0)
(292.695 0.161241 0)
(0.0068522 -8.09771e-014 0)
(0.0318468 -4.41316e-013 0)
(0.113088 7.34344e-012 0)
(0.364738 7.83304e-012 0)
(1.04068 -3.80806e-013 0)
(2.63258 2.81015e-012 0)
(5.92057 4.19161e-012 0)
(11.8208 3.2443e-012 0)
(20.9587 3.0113e-012 0)
(33.1469 -8.17116e-012 0)
(47.5786 -3.91023e-012 0)
(63.0531 -3.35347e-012 0)
(78.8371 -2.38871e-012 0)
(94.4284 4.04127e-012 0)
(109.743 4.80023e-012 0)
(124.564 9.51583e-013 0)
(139.066 -4.00076e-012 0)
(152.957 9.40215e-012 0)
(166.414 6.49097e-012 0)
(179.379 9.46846e-012 0)
(191.626 2.44465e-011 0)
(203.423 1.82682e-010 0)
(214.579 4.97987e-010 0)
(225.022 4.48378e-009 0)
(234.802 1.13403e-008 0)
(243.852 7.07798e-008 0)
(252.096 1.93342e-007 0)
(259.528 7.78497e-007 0)
(266.109 2.12742e-006 0)
(271.919 6.38464e-006 0)
(276.94 1.66593e-005 0)
(280.858 3.94565e-005 0)
(283.941 8.84701e-005 0)
(286.591 0.00017171 0)
(288.648 0.000315711 0)
(290.076 0.000560921 0)
(291.305 0.000967269 0)
(292.271 0.00141411 0)
(292.646 0.0020495 0)
(292.738 0.00236472 0)
(292.79 0.0050963 0)
(292.788 0.00899136 0)
(292.738 0.0102129 0)
(292.724 0.0149238 0)
(292.767 0.0199137 0)
(292.837 0.030664 0)
(292.928 0.0457349 0)
(293.038 0.056591 0)
(293.161 0.0550157 0)
(293.291 0.0393577 0)
(293.43 0.0289989 0)
(293.549 0.0275954 0)
(293.572 0.0135493 0)
(293.488 0.0687114 0)
(293.382 0.122761 0)
(293.275 0.161017 0)
(293.128 0.162151 0)
(292.969 0.186366 0)
(292.832 0.200929 0)
(292.701 0.231975 0)
(0.0068522 -3.29509e-013 0)
(0.0318468 -5.01309e-012 0)
(0.113088 7.5836e-012 0)
(0.364738 4.43705e-013 0)
(1.04068 -9.2683e-013 0)
(2.63258 6.89662e-012 0)
(5.92057 2.05318e-012 0)
(11.8208 6.56327e-012 0)
(20.9587 -1.47107e-012 0)
(33.1469 -1.99027e-012 0)
(47.5786 -1.03428e-012 0)
(63.0531 -5.76461e-012 0)
(78.8371 -1.14648e-012 0)
(94.4284 5.11862e-012 0)
(109.743 2.69089e-012 0)
(124.564 5.87175e-012 0)
(139.066 1.89103e-012 0)
(152.957 3.58374e-012 0)
(166.414 5.91814e-012 0)
(179.379 1.0744e-011 0)
(191.626 3.44638e-011 0)
(203.423 2.49076e-010 0)
(214.579 6.83061e-010 0)
(225.022 6.13711e-009 0)
(234.802 1.55803e-008 0)
(243.852 9.70515e-008 0)
(252.096 2.65891e-007 0)
(259.528 1.0689e-006 0)
(266.109 2.92948e-006 0)
(271.919 8.77268e-006 0)
(276.94 2.29434e-005 0)
(280.858 5.42329e-005 0)
(283.941 0.000121776 0)
(286.591 0.000236361 0)
(288.648 0.000434468 0)
(290.076 0.000771093 0)
(291.305 0.00132597 0)
(292.271 0.00194186 0)
(292.646 0.00282835 0)
(292.738 0.00328905 0)
(292.79 0.00643126 0)
(292.788 0.0117579 0)
(292.738 0.0143331 0)
(292.725 0.0187288 0)
(292.769 0.0246433 0)
(292.84 0.0418945 0)
(292.93 0.0640074 0)
(293.038 0.066787 0)
(293.159 0.0573233 0)
(293.291 0.0430248 0)
(293.432 0.049979 0)
(293.549 0.0623538 0)
(293.573 0.0593262 0)
(293.495 0.106547 0)
(293.387 0.165428 0)
(293.277 0.201595 0)
(293.131 0.236126 0)
(292.969 0.261711 0)
(292.833 0.26946 0)
(292.707 0.317342 0)
(0.0068522 2.01511e-012 0)
(0.0318468 -6.00179e-012 0)
(0.113088 7.49418e-012 0)
(0.364738 3.48946e-012 0)
(1.04068 -4.90927e-013 0)
(2.63258 2.11729e-012 0)
(5.92057 3.93855e-012 0)
(11.8208 1.1263e-011 0)
(20.9587 -1.62991e-012 0)
(33.1469 -1.12318e-012 0)
(47.5786 -9.47838e-015 0)
(63.0531 -7.4923e-012 0)
(78.8371 -2.81637e-012 0)
(94.4284 7.53805e-012 0)
(109.743 8.41017e-012 0)
(124.564 -2.90268e-013 0)
(139.066 -6.12178e-013 0)
(152.957 8.54808e-012 0)
(166.414 8.381e-012 0)
(179.379 1.45188e-011 0)
(191.626 4.02847e-011 0)
(203.423 3.07011e-010 0)
(214.579 8.56997e-010 0)
(225.022 7.70293e-009 0)
(234.802 1.96367e-008 0)
(243.852 1.22019e-007 0)
(252.096 3.35523e-007 0)
(259.528 1.34616e-006 0)
(266.109 3.7028e-006 0)
(271.919 1.10585e-005 0)
(276.94 2.90066e-005 0)
(280.858 6.83958e-005 0)
(283.941 0.000153856 0)
(286.591 0.000298657 0)
(288.648 0.00054872 0)
(290.076 0.000972835 0)
(291.305 0.00166568 0)
(292.271 0.00245261 0)
(292.646 0.00355144 0)
(292.738 0.00426916 0)
(292.791 0.00744499 0)
(292.789 0.0142518 0)
(292.739 0.0175748 0)
(292.726 0.0228347 0)
(292.77 0.0307779 0)
(292.842 0.0526256 0)
(292.931 0.0637291 0)
(293.037 0.0651334 0)
(293.157 0.0629381 0)
(293.29 0.0633746 0)
(293.432 0.0728132 0)
(293.55 0.0902454 0)
(293.577 0.0943946 0)
(293.503 0.139905 0)
(293.395 0.193476 0)
(293.283 0.233642 0)
(293.135 0.278342 0)
(292.972 0.326228 0)
(292.839 0.365299 0)
(292.712 0.413346 0)
(0.0068522 4.01801e-012 0)
(0.0318468 -8.45285e-012 0)
(0.113088 7.26017e-012 0)
(0.364738 -1.35042e-012 0)
(1.04068 1.48381e-012 0)
(2.63258 5.18546e-012 0)
(5.92057 2.61461e-012 0)
(11.8208 8.42073e-012 0)
(20.9587 -7.91963e-013 0)
(33.1469 -6.58526e-013 0)
(47.5786 -2.14123e-012 0)
(63.0531 -6.42567e-012 0)
(78.8371 -3.34516e-012 0)
(94.4284 8.32116e-012 0)
(109.743 6.91699e-012 0)
(124.564 2.20487e-012 0)
(139.066 2.8983e-012 0)
(152.957 1.00041e-011 0)
(166.414 6.85111e-012 0)
(179.379 1.57221e-011 0)
(191.626 4.7913e-011 0)
(203.423 3.63698e-010 0)
(214.579 1.02283e-009 0)
(225.022 9.17397e-009 0)
(234.802 2.35026e-008 0)
(243.852 1.45639e-007 0)
(252.096 4.02202e-007 0)
(259.528 1.60999e-006 0)
(266.109 4.44751e-006 0)
(271.919 1.32406e-005 0)
(276.94 3.48515e-005 0)
(280.858 8.19401e-005 0)
(283.941 0.000184719 0)
(286.591 0.00035862 0)
(288.648 0.000658465 0)
(290.076 0.00116615 0)
(291.305 0.00198546 0)
(292.271 0.00294875 0)
(292.647 0.00421121 0)
(292.738 0.00527825 0)
(292.791 0.00824078 0)
(292.789 0.0168243 0)
(292.739 0.0209044 0)
(292.726 0.0271456 0)
(292.772 0.0355574 0)
(292.844 0.0588277 0)
(292.932 0.0580342 0)
(293.037 0.0647776 0)
(293.158 0.0734042 0)
(293.292 0.0815097 0)
(293.435 0.0956301 0)
(293.551 0.115603 0)
(293.579 0.132107 0)
(293.507 0.182903 0)
(293.399 0.236581 0)
(293.287 0.277676 0)
(293.143 0.323032 0)
(292.98 0.381493 0)
(292.845 0.421291 0)
(292.719 0.469766 0)
(0.0068522 8.50534e-012 0)
(0.0318468 -1.00613e-011 0)
(0.113088 5.82325e-012 0)
(0.364738 2.39807e-012 0)
(1.04068 -2.83101e-012 0)
(2.63258 2.44005e-012 0)
(5.92057 2.06625e-013 0)
(11.8208 1.33983e-011 0)
(20.9587 -3.73948e-012 0)
(33.1469 1.51657e-012 0)
(47.5786 -2.29311e-012 0)
(63.0531 -2.6051e-012 0)
(78.8371 -2.98184e-012 0)
(94.4284 1.08478e-011 0)
(109.743 1.29093e-012 0)
(124.564 5.46582e-012 0)
(139.066 1.94277e-012 0)
(152.957 9.67878e-012 0)
(166.414 1.06327e-011 0)
(179.379 1.48811e-011 0)
(191.626 5.32074e-011 0)
(203.423 4.17199e-010 0)
(214.579 1.18026e-009 0)
(225.022 1.05487e-008 0)
(234.802 2.71779e-008 0)
(243.852 1.67894e-007 0)
(252.096 4.65917e-007 0)
(259.528 1.86027e-006 0)
(266.109 5.16383e-006 0)
(271.919 1.53187e-005 0)
(276.94 4.04813e-005 0)
(280.858 9.48666e-005 0)
(283.941 0.000214385 0)
(286.591 0.000416283 0)
(288.648 0.000763717 0)
(290.076 0.00135107 0)
(291.305 0.00228519 0)
(292.271 0.00342825 0)
(292.647 0.00481756 0)
(292.738 0.00624679 0)
(292.792 0.00921045 0)
(292.79 0.0193396 0)
(292.74 0.02476 0)
(292.727 0.0301715 0)
(292.774 0.0401308 0)
(292.845 0.0617405 0)
(292.932 0.0600294 0)
(293.039 0.0692351 0)
(293.159 0.0823387 0)
(293.293 0.0924796 0)
(293.436 0.102983 0)
(293.554 0.122751 0)
(293.585 0.160202 0)
(293.515 0.218072 0)
(293.405 0.269894 0)
(293.292 0.310522 0)
(293.148 0.390203 0)
(292.984 0.448601 0)
(292.85 0.476787 0)
(292.726 0.544109 0)
(0.0068522 1.32138e-011 0)
(0.0318468 -1.03994e-011 0)
(0.113088 6.44531e-012 0)
(0.364738 8.50966e-013 0)
(1.04068 1.9577e-012 0)
(2.63258 1.69612e-012 0)
(5.92057 2.02848e-012 0)
(11.8208 1.20368e-011 0)
(20.9587 -3.83762e-013 0)
(33.1469 -5.97847e-013 0)
(47.5786 -3.2369e-012 0)
(63.0531 -5.41655e-012 0)
(78.8371 -5.60977e-012 0)
(94.4284 5.93432e-012 0)
(109.743 3.43914e-012 0)
(124.564 5.60538e-012 0)
(139.066 4.13942e-012 0)
(152.957 1.27233e-011 0)
(166.414 1.09478e-011 0)
(179.379 1.96038e-011 0)
(191.626 6.06281e-011 0)
(203.423 4.66457e-010 0)
(214.579 1.32985e-009 0)
(225.022 1.18291e-008 0)
(234.802 3.0662e-008 0)
(243.852 1.8878e-007 0)
(252.096 5.26678e-007 0)
(259.528 2.09701e-006 0)
(266.109 5.85203e-006 0)
(271.919 1.72935e-005 0)
(276.94 4.58997e-005 0)
(280.858 0.000107182 0)
(283.941 0.000242869 0)
(286.591 0.000471697 0)
(288.648 0.000864506 0)
(290.076 0.00152762 0)
(291.305 0.00256537 0)
(292.271 0.00388949 0)
(292.647 0.00536454 0)
(292.739 0.00717956 0)
(292.793 0.0103533 0)
(292.791 0.0211136 0)
(292.741 0.0280389 0)
(292.728 0.0321695 0)
(292.776 0.0436104 0)
(292.846 0.0587033 0)
(292.933 0.0634124 0)
(293.04 0.0791809 0)
(293.161 0.0949706 0)
(293.294 0.109394 0)
(293.438 0.126913 0)
(293.557 0.152481 0)
(293.589 0.205566 0)
(293.519 0.259998 0)
(293.408 0.29711 0)
(293.3 0.344645 0)
(293.159 0.412597 0)
(292.989 0.505656 0)
(292.857 0.580273 0)
(292.736 0.627186 0)
(0.0068522 1.60446e-011 0)
(0.0318468 -1.06161e-011 0)
(0.113088 2.50103e-012 0)
(0.364738 3.26546e-012 0)
(1.04068 1.61757e-012 0)
(2.63258 1.16359e-012 0)
(5.92057 5.96506e-014 0)
(11.8208 1.63124e-011 0)
(20.9587 -1.67953e-012 0)
(33.1469 2.96958e-012 0)
(47.5786 3.8333e-012 0)
(63.0531 -7.30479e-012 0)
(78.8371 2.38339e-012 0)
(94.4284 5.95856e-012 0)
(109.743 1.89086e-012 0)
(124.564 7.50033e-012 0)
(139.066 2.88231e-012 0)
(152.957 1.04622e-011 0)
(166.414 8.95925e-012 0)
(179.379 1.78606e-011 0)
(191.626 6.10931e-011 0)
(203.423 5.1111e-010 0)
(214.579 1.46902e-009 0)
(225.022 1.30137e-008 0)
(234.802 3.3954e-008 0)
(243.852 2.08308e-007 0)
(252.096 5.84508e-007 0)
(259.528 2.32037e-006 0)
(266.109 6.51244e-006 0)
(271.919 1.91664e-005 0)
(276.94 5.11103e-005 0)
(280.858 0.000118899 0)
(283.941 0.000270193 0)
(286.591 0.000524912 0)
(288.648 0.000960906 0)
(290.076 0.0016958 0)
(291.305 0.00282737 0)
(292.271 0.00432665 0)
(292.647 0.00586307 0)
(292.739 0.00806408 0)
(292.793 0.0114225 0)
(292.792 0.02247 0)
(292.741 0.0309775 0)
(292.729 0.0362034 0)
(292.777 0.0483558 0)
(292.847 0.0577553 0)
(292.934 0.0706803 0)
(293.042 0.0924867 0)
(293.163 0.107913 0)
(293.296 0.121411 0)
(293.44 0.142542 0)
(293.562 0.176634 0)
(293.596 0.245051 0)
(293.524 0.293823 0)
(293.412 0.338562 0)
(293.304 0.407611 0)
(293.167 0.461797 0)
(293.004 0.553056 0)
(292.864 0.656233 0)
(292.735 0.708531 0)
(0.0068522 1.81877e-011 0)
(0.0318468 -9.80457e-012 0)
(0.113088 4.92784e-012 0)
(0.364738 8.20478e-013 0)
(1.04068 5.41247e-012 0)
(2.63258 9.73932e-013 0)
(5.92057 1.13483e-012 0)
(11.8208 1.55944e-011 0)
(20.9587 4.21687e-013 0)
(33.1469 2.13822e-012 0)
(47.5786 -4.24175e-012 0)
(63.0531 -3.72494e-012 0)
(78.8371 -4.60883e-012 0)
(94.4284 1.76588e-012 0)
(109.743 4.01079e-012 0)
(124.564 7.47617e-012 0)
(139.066 1.7661e-012 0)
(152.957 1.20188e-011 0)
(166.414 1.18421e-011 0)
(179.379 1.96092e-011 0)
(191.626 7.02734e-011 0)
(203.423 5.53814e-010 0)
(214.579 1.5995e-009 0)
(225.022 1.41067e-008 0)
(234.802 3.706e-008 0)
(243.852 2.26507e-007 0)
(252.096 6.39451e-007 0)
(259.528 2.53058e-006 0)
(266.109 7.14544e-006 0)
(271.919 2.09396e-005 0)
(276.94 5.61173e-005 0)
(280.858 0.000130031 0)
(283.941 0.000296387 0)
(286.591 0.000575958 0)
(288.648 0.00105306 0)
(290.076 0.00185558 0)
(291.305 0.00307276 0)
(292.271 0.00473409 0)
(292.647 0.0063312 0)
(292.739 0.00887723 0)
(292.794 0.0123631 0)
(292.793 0.0237527 0)
(292.742 0.0332771 0)
(292.73 0.0406309 0)
(292.778 0.0518821 0)
(292.848 0.0601897 0)
(292.936 0.0817407 0)
(293.044 0.102563 0)
(293.164 0.119055 0)
(293.298 0.135738 0)
(293.443 0.158955 0)
(293.568 0.19727 0)
(293.601 0.267006 0)
(293.527 0.314473 0)
(293.419 0.372091 0)
(293.312 0.450543 0)
(293.174 0.531943 0)
(293.013 0.609328 0)
(292.875 0.696119 0)
(292.744 0.78777 0)
(0.0068522 2.03266e-011 0)
(0.0318468 -1.30925e-011 0)
(0.113088 4.33695e-012 0)
(0.364738 9.42276e-013 0)
(1.04068 4.28973e-012 0)
(2.63258 -2.37837e-013 0)
(5.92057 -4.16147e-013 0)
(11.8208 1.80872e-011 0)
(20.9587 4.54681e-013 0)
(33.1469 3.37233e-012 0)
(47.5786 5.79858e-012 0)
(63.0531 -1.4743e-012 0)
(78.8371 2.31419e-012 0)
(94.4284 2.77758e-012 0)
(109.743 6.06103e-012 0)
(124.564 6.33137e-012 0)
(139.066 3.16727e-012 0)
(152.957 6.81648e-012 0)
(166.414 9.7034e-012 0)
(179.379 1.85299e-011 0)
(191.626 7.23137e-011 0)
(203.423 5.89055e-010 0)
(214.579 1.72196e-009 0)
(225.022 1.5108e-008 0)
(234.802 3.99815e-008 0)
(243.852 2.43408e-007 0)
(252.096 6.91551e-007 0)
(259.528 2.72796e-006 0)
(266.109 7.75145e-006 0)
(271.919 2.26156e-005 0)
(276.94 6.09248e-005 0)
(280.858 0.000140596 0)
(283.941 0.000321482 0)
(286.591 0.000624878 0)
(288.649 0.00114109 0)
(290.077 0.00200702 0)
(291.305 0.00330274 0)
(292.272 0.00511069 0)
(292.647 0.00677202 0)
(292.739 0.00964251 0)
(292.795 0.0132107 0)
(292.794 0.0252011 0)
(292.743 0.0357046 0)
(292.731 0.0452798 0)
(292.779 0.0526215 0)
(292.85 0.0626557 0)
(292.939 0.0913986 0)
(293.046 0.110467 0)
(293.166 0.128332 0)
(293.3 0.146038 0)
(293.446 0.169985 0)
(293.573 0.211213 0)
(293.607 0.272988 0)
(293.532 0.332615 0)
(293.425 0.395829 0)
(293.32 0.489056 0)
(293.183 0.58202 0)
(293.022 0.66387 0)
(292.885 0.756639 0)
(292.754 0.860354 0)
(0.0068522 2.21784e-011 0)
(0.0318468 -1.23253e-011 0)
(0.113088 4.61705e-012 0)
(0.364738 -1.40196e-013 0)
(1.04068 4.18493e-012 0)
(2.63258 -7.06749e-013 0)
(5.92057 2.61765e-012 0)
(11.8208 1.71553e-011 0)
(20.9587 4.83095e-012 0)
(33.1469 6.52108e-013 0)
(47.5786 1.52598e-013 0)
(63.0531 -7.2617e-012 0)
(78.8371 1.17382e-013 0)
(94.4284 4.70533e-012 0)
(109.743 1.59029e-012 0)
(124.564 4.666e-012 0)
(139.066 4.9208e-013 0)
(152.957 1.07901e-011 0)
(166.414 1.10901e-011 0)
(179.379 2.0361e-011 0)
(191.626 7.62179e-011 0)
(203.423 6.22626e-010 0)
(214.579 1.83437e-009 0)
(225.022 1.60225e-008 0)
(234.802 4.2723e-008 0)
(243.852 2.59055e-007 0)
(252.096 7.40875e-007 0)
(259.528 2.91288e-006 0)
(266.109 8.33094e-006 0)
(271.919 2.41976e-005 0)
(276.94 6.55372e-005 0)
(280.858 0.000150613 0)
(283.941 0.000345508 0)
(286.591 0.000671729 0)
(288.649 0.00122514 0)
(290.077 0.0021503 0)
(291.306 0.00351819 0)
(292.272 0.00545824 0)
(292.648 0.00717806 0)
(292.74 0.0103877 0)
(292.795 0.0141302 0)
(292.795 0.0263752 0)
(292.744 0.0375816 0)
(292.731 0.0486473 0)
(292.779 0.0551332 0)
(292.852 0.0657508 0)
(292.941 0.0963036 0)
(293.048 0.114863 0)
(293.168 0.132765 0)
(293.302 0.151883 0)
(293.45 0.175608 0)
(293.578 0.228238 0)
(293.612 0.283703 0)
(293.538 0.339888 0)
(293.433 0.418954 0)
(293.331 0.528182 0)
(293.192 0.643366 0)
(293.031 0.716645 0)
(292.897 0.816467 0)
(292.765 0.926428 0)
(0.0068522 2.58902e-011 0)
(0.0318468 -1.41918e-011 0)
(0.113088 3.16657e-012 0)
(0.364738 -9.3592e-013 0)
(1.04068 3.76734e-012 0)
(2.63258 5.40166e-013 0)
(5.92057 -1.80571e-012 0)
(11.8208 1.91172e-011 0)
(20.9587 8.25327e-012 0)
(33.1469 4.69652e-012 0)
(47.5786 5.59752e-012 0)
(63.0531 -1.14247e-012 0)
(78.8371 -1.33063e-012 0)
(94.4284 1.04363e-012 0)
(109.743 4.13284e-012 0)
(124.564 9.09031e-012 0)
(139.066 4.89711e-012 0)
(152.957 5.88725e-012 0)
(166.414 8.40302e-012 0)
(179.379 1.8671e-011 0)
(191.626 7.89791e-011 0)
(203.423 6.52949e-010 0)
(214.579 1.93922e-009 0)
(225.022 1.68542e-008 0)
(234.802 4.52887e-008 0)
(243.852 2.73491e-007 0)
(252.096 7.87491e-007 0)
(259.528 3.0858e-006 0)
(266.109 8.88444e-006 0)
(271.919 2.56888e-005 0)
(276.94 6.99589e-005 0)
(280.858 0.000160103 0)
(283.941 0.000368498 0)
(286.591 0.000716561 0)
(288.649 0.00130531 0)
(290.077 0.00228563 0)
(291.306 0.00372001 0)
(292.272 0.00577833 0)
(292.648 0.00755234 0)
(292.74 0.011088 0)
(292.796 0.0152272 0)
(292.796 0.0274523 0)
(292.745 0.0397447 0)
(292.732 0.0533234 0)
(292.78 0.0631685 0)
(292.854 0.0727521 0)
(292.943 0.0954406 0)
(293.049 0.117559 0)
(293.169 0.13366 0)
(293.304 0.153988 0)
(293.454 0.179815 0)
(293.583 0.230493 0)
(293.616 0.292258 0)
(293.544 0.359526 0)
(293.442 0.463247 0)
(293.342 0.56566 0)
(293.201 0.681889 0)
(293.039 0.76761 0)
(292.908 0.889071 0)
(292.777 0.994525 0)
(0.0068522 2.52763e-011 0)
(0.0318468 -1.09663e-011 0)
(0.113088 -7.24571e-013 0)
(0.364738 1.97889e-012 0)
(1.04068 2.47235e-012 0)
(2.63258 -8.80571e-013 0)
(5.92057 -6.12415e-013 0)
(11.8208 2.2032e-011 0)
(20.9587 6.3607e-012 0)
(33.1469 2.99024e-012 0)
(47.5786 1.82482e-012 0)
(63.0531 -4.01883e-012 0)
(78.8371 1.58038e-012 0)
(94.4284 3.32661e-012 0)
(109.743 2.88072e-012 0)
(124.564 2.6615e-012 0)
(139.066 2.07729e-012 0)
(152.957 7.27807e-012 0)
(166.414 1.06443e-011 0)
(179.379 2.02329e-011 0)
(191.626 8.31246e-011 0)
(203.423 6.78777e-010 0)
(214.579 2.03598e-009 0)
(225.022 1.76069e-008 0)
(234.802 4.76878e-008 0)
(243.852 2.86773e-007 0)
(252.096 8.31477e-007 0)
(259.528 3.24716e-006 0)
(266.109 9.41249e-006 0)
(271.919 2.70929e-005 0)
(276.94 7.41947e-005 0)
(280.858 0.000169088 0)
(283.941 0.000390488 0)
(286.591 0.000759429 0)
(288.649 0.00138173 0)
(290.077 0.00241333 0)
(291.306 0.00390911 0)
(292.272 0.00607176 0)
(292.648 0.00789639 0)
(292.74 0.0117187 0)
(292.797 0.0164968 0)
(292.797 0.0285417 0)
(292.746 0.041662 0)
(292.734 0.0589968 0)
(292.781 0.0708656 0)
(292.855 0.0791998 0)
(292.945 0.0901473 0)
(293.051 0.117377 0)
(293.171 0.137728 0)
(293.306 0.160387 0)
(293.457 0.188991 0)
(293.588 0.231602 0)
(293.623 0.309075 0)
(293.552 0.392186 0)
(293.451 0.514717 0)
(293.35 0.606711 0)
(293.21 0.698776 0)
(293.051 0.813084 0)
(292.921 0.957993 0)
(292.788 1.07588 0)
(0.0068522 2.62407e-011 0)
(0.0318468 -1.37401e-011 0)
(0.113088 -7.66755e-014 0)
(0.364738 7.60784e-013 0)
(1.04068 2.55973e-012 0)
(2.63258 6.9093e-013 0)
(5.92057 1.27333e-012 0)
(11.8208 2.21849e-011 0)
(20.9587 9.46936e-012 0)
(33.1469 4.32115e-012 0)
(47.5786 3.65912e-012 0)
(63.0531 -6.60207e-013 0)
(78.8371 -4.82616e-013 0)
(94.4284 -5.86168e-014 0)
(109.743 9.41505e-012 0)
(124.564 5.75182e-012 0)
(139.066 5.62089e-012 0)
(152.957 4.39264e-012 0)
(166.414 8.51329e-012 0)
(179.379 1.96859e-011 0)
(191.626 8.69817e-011 0)
(203.423 7.00762e-010 0)
(214.579 2.12706e-009 0)
(225.022 1.8285e-008 0)
(234.802 4.99256e-008 0)
(243.852 2.98954e-007 0)
(252.096 8.72917e-007 0)
(259.528 3.39748e-006 0)
(266.109 9.9157e-006 0)
(271.919 2.84136e-005 0)
(276.94 7.82492e-005 0)
(280.858 0.000177589 0)
(283.941 0.000411512 0)
(286.591 0.000800394 0)
(288.649 0.00145452 0)
(290.077 0.00253369 0)
(291.306 0.00408637 0)
(292.272 0.00634038 0)
(292.648 0.00820672 0)
(292.741 0.0122957 0)
(292.797 0.0178664 0)
(292.798 0.029895 0)
(292.747 0.0433929 0)
(292.735 0.0602977 0)
(292.782 0.0730523 0)
(292.856 0.0870555 0)
(292.947 0.10033 0)
(293.054 0.118053 0)
(293.173 0.141421 0)
(293.308 0.167775 0)
(293.46 0.200715 0)
(293.593 0.245464 0)
(293.63 0.327642 0)
(293.561 0.418285 0)
(293.461 0.542897 0)
(293.357 0.638847 0)
(293.219 0.742574 0)
(293.065 0.896281 0)
(292.936 1.05037 0)
(292.801 1.15726 0)
(0.0068522 2.41992e-011 0)
(0.0318468 -1.06439e-011 0)
(0.113088 -4.05268e-012 0)
(0.364738 -5.74602e-013 0)
(1.04068 2.67174e-012 0)
(2.63258 -4.8874e-013 0)
(5.92057 3.25776e-012 0)
(11.8208 2.27502e-011 0)
(20.9587 6.55551e-012 0)
(33.1469 2.73043e-012 0)
(47.5786 3.70957e-012 0)
(63.0531 -1.59289e-012 0)
(78.8371 -1.91915e-012 0)
(94.4284 1.99083e-012 0)
(109.743 7.18298e-012 0)
(124.564 6.41912e-012 0)
(139.066 1.67552e-012 0)
(152.957 7.07947e-012 0)
(166.414 1.0801e-011 0)
(179.379 2.13556e-011 0)
(191.626 8.85468e-011 0)
(203.423 7.19541e-010 0)
(214.579 2.20891e-009 0)
(225.022 1.88908e-008 0)
(234.802 5.20067e-008 0)
(243.852 3.10093e-007 0)
(252.096 9.11895e-007 0)
(259.528 3.53727e-006 0)
(266.109 1.03947e-005 0)
(271.919 2.96547e-005 0)
(276.94 8.21274e-005 0)
(280.858 0.000185629 0)
(283.941 0.000431599 0)
(286.591 0.000839521 0)
(288.649 0.00152379 0)
(290.077 0.00264702 0)
(291.306 0.00425294 0)
(292.272 0.00658357 0)
(292.648 0.00849551 0)
(292.741 0.0128393 0)
(292.798 0.019166 0)
(292.799 0.0315532 0)
(292.748 0.0457619 0)
(292.736 0.0584091 0)
(292.783 0.0714814 0)
(292.857 0.094061 0)
(292.948 0.120368 0)
(293.055 0.119255 0)
(293.175 0.141286 0)
(293.311 0.173947 0)
(293.463 0.208936 0)
(293.599 0.255611 0)
(293.638 0.336388 0)
(293.571 0.430741 0)
(293.47 0.553934 0)
(293.367 0.660649 0)
(293.234 0.794653 0)
(293.082 0.973377 0)
(292.947 1.13051 0)
(292.809 1.2819 0)
(0.0068522 2.31113e-011 0)
(0.0318468 -1.37431e-011 0)
(0.113088 -2.99132e-012 0)
(0.364738 -2.59511e-012 0)
(1.04068 2.39524e-012 0)
(2.63258 -3.95641e-014 0)
(5.92057 3.28522e-012 0)
(11.8208 2.28599e-011 0)
(20.9587 1.17476e-011 0)
(33.1469 1.78645e-012 0)
(47.5786 3.49809e-012 0)
(63.0531 -4.1164e-014 0)
(78.8371 -2.30957e-012 0)
(94.4284 -1.68725e-012 0)
(109.743 7.45253e-012 0)
(124.564 4.03829e-012 0)
(139.066 8.199e-012 0)
(152.957 4.98669e-012 0)
(166.414 1.05548e-011 0)
(179.379 2.21711e-011 0)
(191.626 9.34121e-011 0)
(203.423 7.3963e-010 0)
(214.579 2.28578e-009 0)
(225.022 1.94324e-008 0)
(234.802 5.39409e-008 0)
(243.852 3.20248e-007 0)
(252.096 9.48504e-007 0)
(259.528 3.66704e-006 0)
(266.109 1.08501e-005 0)
(271.919 3.08201e-005 0)
(276.94 8.58339e-005 0)
(280.858 0.000193232 0)
(283.941 0.000450779 0)
(286.591 0.000876872 0)
(288.649 0.00158969 0)
(290.077 0.00275367 0)
(291.306 0.00440963 0)
(292.272 0.00680215 0)
(292.649 0.00877291 0)
(292.741 0.0133463 0)
(292.799 0.0204783 0)
(292.8 0.0330735 0)
(292.749 0.0479226 0)
(292.737 0.0601272 0)
(292.785 0.0752459 0)
(292.86 0.099449 0)
(292.949 0.128455 0)
(293.055 0.120754 0)
(293.178 0.139515 0)
(293.314 0.177429 0)
(293.466 0.216088 0)
(293.604 0.266758 0)
(293.644 0.347951 0)
(293.579 0.436331 0)
(293.479 0.550437 0)
(293.377 0.687859 0)
(293.248 0.84046 0)
(293.098 1.01411 0)
(292.966 1.17338 0)
(292.83 1.40595 0)
(0.0068522 2.11405e-011 0)
(0.0318468 -1.08539e-011 0)
(0.113088 -5.05971e-012 0)
(0.364738 -2.94264e-012 0)
(1.04068 2.16532e-012 0)
(2.63258 -2.47687e-012 0)
(5.92057 3.63723e-012 0)
(11.8208 2.24389e-011 0)
(20.9587 1.06899e-011 0)
(33.1469 2.48842e-012 0)
(47.5786 2.83827e-012 0)
(63.0531 -3.59147e-012 0)
(78.8371 -8.18692e-013 0)
(94.4284 3.6701e-013 0)
(109.743 5.08045e-012 0)
(124.564 4.45489e-012 0)
(139.066 5.59002e-012 0)
(152.957 7.59317e-012 0)
(166.414 1.08241e-011 0)
(179.379 2.26673e-011 0)
(191.626 9.35628e-011 0)
(203.423 7.53404e-010 0)
(214.579 2.35728e-009 0)
(225.022 1.99111e-008 0)
(234.802 5.57326e-008 0)
(243.852 3.29478e-007 0)
(252.096 9.82839e-007 0)
(259.528 3.78733e-006 0)
(266.109 1.12827e-005 0)
(271.919 3.19136e-005 0)
(276.94 8.93738e-005 0)
(280.858 0.000200419 0)
(283.941 0.000469089 0)
(286.591 0.000912499 0)
(288.649 0.00165236 0)
(290.077 0.00285395 0)
(291.306 0.00455705 0)
(292.273 0.0069991 0)
(292.649 0.00904115 0)
(292.742 0.0138144 0)
(292.8 0.0218222 0)
(292.801 0.0341393 0)
(292.751 0.0492874 0)
(292.738 0.0651804 0)
(292.787 0.0851596 0)
(292.862 0.108191 0)
(292.949 0.128384 0)
(293.056 0.126234 0)
(293.18 0.137279 0)
(293.317 0.171869 0)
(293.47 0.218329 0)
(293.609 0.27544 0)
(293.651 0.360224 0)
(293.586 0.431988 0)
(293.49 0.53186 0)
(293.391 0.707464 0)
(293.262 0.892795 0)
(293.113 1.05645 0)
(292.986 1.23331 0)
(292.85 1.47677 0)
(0.0068522 1.72677e-011 0)
(0.0318468 -1.55187e-011 0)
(0.113088 -2.0431e-012 0)
(0.364738 -5.65414e-012 0)
(1.04068 6.17761e-013 0)
(2.63258 -9.74077e-014 0)
(5.92057 2.1259e-012 0)
(11.8208 2.34548e-011 0)
(20.9587 1.2032e-011 0)
(33.1469 9.57229e-013 0)
(47.5786 -2.27459e-012 0)
(63.0531 1.21692e-012 0)
(78.8371 -2.82304e-012 0)
(94.4284 6.33186e-013 0)
(109.743 6.62314e-012 0)
(124.564 9.88152e-012 0)
(139.066 6.36293e-012 0)
(152.957 7.14291e-012 0)
(166.414 1.03238e-011 0)
(179.379 2.34941e-011 0)
(191.626 9.737e-011 0)
(203.423 7.67876e-010 0)
(214.579 2.42354e-009 0)
(225.022 2.03337e-008 0)
(234.802 5.73898e-008 0)
(243.852 3.3784e-007 0)
(252.096 1.015e-006 0)
(259.528 3.89865e-006 0)
(266.109 1.16932e-005 0)
(271.919 3.2939e-005 0)
(276.94 9.27522e-005 0)
(280.858 0.000207211 0)
(283.941 0.000486562 0)
(286.591 0.000946455 0)
(288.649 0.00171195 0)
(290.077 0.00294818 0)
(291.306 0.00469582 0)
(292.273 0.0071761 0)
(292.649 0.00930221 0)
(292.742 0.0142466 0)
(292.8 0.0230378 0)
(292.802 0.0349846 0)
(292.752 0.0504441 0)
(292.74 0.0688535 0)
(292.788 0.0939983 0)
(292.863 0.115187 0)
(292.95 0.127117 0)
(293.056 0.132317 0)
(293.181 0.140283 0)
(293.32 0.1678 0)
(293.474 0.218231 0)
(293.615 0.278489 0)
(293.656 0.368062 0)
(293.591 0.426709 0)
(293.501 0.530266 0)
(293.408 0.733189 0)
(293.277 0.939114 0)
(293.128 1.09522 0)
(293.006 1.28362 0)
(292.868 1.5511 0)
(0.0068522 1.47487e-011 0)
(0.0318468 -1.3155e-011 0)
(0.113088 -4.30128e-012 0)
(0.364738 -5.94763e-012 0)
(1.04068 2.63002e-012 0)
(2.63258 -3.33683e-013 0)
(5.92057 1.23779e-012 0)
(11.8208 2.27064e-011 0)
(20.9587 1.21776e-011 0)
(33.1469 1.82982e-012 0)
(47.5786 2.60835e-012 0)
(63.0531 -2.30165e-012 0)
(78.8371 1.97372e-013 0)
(94.4284 -2.31934e-012 0)
(109.743 1.00809e-011 0)
(124.564 4.58763e-012 0)
(139.066 6.58283e-012 0)
(152.957 7.54955e-012 0)
(166.414 1.15985e-011 0)
(179.379 2.32173e-011 0)
(191.626 9.76194e-011 0)
(203.423 7.78386e-010 0)
(214.579 2.48135e-009 0)
(225.022 2.07027e-008 0)
(234.802 5.8918e-008 0)
(243.852 3.45388e-007 0)
(252.096 1.04507e-006 0)
(259.528 4.00153e-006 0)
(266.109 1.20822e-005 0)
(271.919 3.39001e-005 0)
(276.94 9.59742e-005 0)
(280.858 0.00021363 0)
(283.941 0.000503224 0)
(286.591 0.000978822 0)
(288.649 0.00176856 0)
(290.077 0.00303669 0)
(291.307 0.00482642 0)
(292.273 0.00733583 0)
(292.649 0.00955277 0)
(292.743 0.0146504 0)
(292.801 0.0240639 0)
(292.803 0.0356679 0)
(292.753 0.0513039 0)
(292.741 0.0711604 0)
(292.79 0.100997 0)
(292.864 0.121632 0)
(292.951 0.132905 0)
(293.057 0.141816 0)
(293.183 0.149473 0)
(293.323 0.171099 0)
(293.479 0.221522 0)
(293.62 0.283311 0)
(293.661 0.368474 0)
(293.597 0.438025 0)
(293.514 0.556429 0)
(293.425 0.764883 0)
(293.292 0.968129 0)
(293.142 1.15527 0)
(293.028 1.35599 0)
(292.891 1.63562 0)
(0.0068522 1.0288e-011 0)
(0.0318468 -1.73076e-011 0)
(0.113088 -3.68556e-013 0)
(0.364738 -6.75232e-012 0)
(1.04068 1.72396e-012 0)
(2.63258 -1.16282e-012 0)
(5.92057 1.20395e-012 0)
(11.8208 2.25521e-011 0)
(20.9587 1.14241e-011 0)
(33.1469 3.90135e-013 0)
(47.5786 -9.40052e-013 0)
(63.0531 2.18095e-012 0)
(78.8371 -1.07557e-012 0)
(94.4284 1.78412e-012 0)
(109.743 9.17332e-012 0)
(124.564 5.44085e-012 0)
(139.066 6.75725e-012 0)
(152.957 6.15798e-012 0)
(166.414 1.21682e-011 0)
(179.379 2.43844e-011 0)