/*--------------------------------*- C++ -*----------------------------------*\
| =========                 |                                                 |
| \\      /  F ield         | OpenFOAM: The Open Source CFD Toolbox           |
|  \\    /   O peration     | Version:  5.x                                   |
|   \\  /    A nd           | Web:      www.OpenFOAM.org                      |
|    \\/     M anipulation  |                                                 |
\*---------------------------------------------------------------------------*/
/*   Windows 32 and 64 bit porting by blueCAPE: http://www.bluecape.com.pt   *\
|  Based on Windows porting (2.0.x v4) by Symscape: http://www.symscape.com   |
\*---------------------------------------------------------------------------*/
FoamFile
{
    version     2.0;
    format      ascii;
    class       volScalarField;
    location    "0.0015";
    object      mag(U);
}
// * * * * * * * * * * * * * * * * * * * * * * * * * * * * * * * * * * * * * //

dimensions      [0 1 -1 0 0 0 0];

internalField   nonuniform List<scalar> 
100
(
0.27903
3.96634
54.1063
212.877
99.1802
11.9734
0.27903
3.96635
54.1063
212.877
99.1697
11.9616
0.27903
3.96635
54.1063
212.877
99.1532
11.9458
0.27903
3.96635
54.1063
212.878
99.1359
11.9304
0.27903
3.96635
54.1063
212.878
99.1218
11.943
0.27903
3.96635
54.1063
212.879
99.0791
13.7806
0.279029
3.96635
54.1062
212.88
99.0524
13.7803
0.279029
3.96635
54.1062
212.88
99.0392
13.7874
0.279029
3.96635
54.1062
212.88
99.0379
13.7882
0.279029
3.96635
54.1062
212.88
99.0377
13.7883
2.78195
0.94603
2.84341
0.943887
2.87367
0.943645
2.87675
0.943818
2.87714
0.943844
0.00405996
0.000466085
1.26498e-005
0.0171215
0.0017018
4.99688e-005
0.0401969
0.00431028
0.000108966
0.0642401
0.0076692
0.00017635
0.0990953
0.0114465
0.000238839
0.22943
0.0183279
0.000424116
0.217047
0.0206534
0.000468121
0.216409
0.0219702
0.000489893
0.216461
0.0220568
0.000491065
0.21647
0.0220669
0.000491199
)
;

boundaryField
{
    inlet
    {
        type            calculated;
        value           nonuniform List<scalar> 10(0.27903 0.279029 0.279029 0.279029 0.279029 0.27903 0.27903 0.27903 0.27903 0.27903);
    }
    outlet
    {
        type            calculated;
        value           nonuniform List<scalar> 10(0.000424116 0.000468121 0.000489893 0.000491065 0.000491199 1.26498e-005 4.99688e-005 0.000108966 0.00017635 0.000238839);
    }
    bottom
    {
        type            symmetryPlane;
    }
    top
    {
        type            symmetryPlane;
    }
    obstacle
    {
        type            calculated;
        value           nonuniform List<scalar> 
12
(
11.9734
11.9616
11.9458
11.9304
11.943
0.00405996
0.0171215
0.0401969
0.0642401
0.0990953
2.78195
0.94603
)
;
    }
    defaultFaces
    {
        type            empty;
    }
}


// ************************************************************************* //
