/*--------------------------------*- C++ -*----------------------------------*\
| =========                 |                                                 |
| \\      /  F ield         | OpenFOAM: The Open Source CFD Toolbox           |
|  \\    /   O peration     | Version:  5.x                                   |
|   \\  /    A nd           | Web:      www.OpenFOAM.org                      |
|    \\/     M anipulation  |                                                 |
\*---------------------------------------------------------------------------*/
/*   Windows 32 and 64 bit porting by blueCAPE: http://www.bluecape.com.pt   *\
|  Based on Windows porting (2.0.x v4) by Symscape: http://www.symscape.com   |
\*---------------------------------------------------------------------------*/
FoamFile
{
    version     2.0;
    format      ascii;
    class       volScalarField;
    location    "0.0015";
    object      p;
}
// * * * * * * * * * * * * * * * * * * * * * * * * * * * * * * * * * * * * * //

dimensions      [1 -1 -2 0 0 0 0];

internalField   nonuniform List<scalar> 
100
(
99946
97572.9
82178.5
33142.9
13290
10476.6
99946
97572.9
82178.5
33143
13289.5
10483.8
99946
97572.9
82178.5
33143.1
13288.7
10493.6
99946
97572.9
82178.5
33143.1
13287.8
10502.8
99946
97572.9
82178.5
33143.2
13287.1
10510
99946
97572.9
82178.4
33143.3
13285
10530.6
99946
97572.9
82178.4
33143.5
13283.6
10547.8
99946
97572.9
82178.4
33143.6
13282.9
10557.1
99946
97572.9
82178.4
33143.6
13282.8
10558.3
99946
97572.9
82178.4
33143.6
13282.8
10558.4
10113.4
10037
10114.3
10037.6
10114.8
10037.9
10114.8
10037.9
10114.9
10037.9
10000.2
10000
10000
10000.7
10000
10000
10001.6
10000.1
10000
10002.8
10000.2
10000
10003.8
10000.3
10000
10007
10000.6
10000
10008.4
10000.7
10000
10009
10000.7
10000
10009.1
10000.7
10000
10009.1
10000.7
10000
)
;

boundaryField
{
    inlet
    {
        type            zeroGradient;
    }
    outlet
    {
        type            zeroGradient;
    }
    bottom
    {
        type            symmetryPlane;
    }
    top
    {
        type            symmetryPlane;
    }
    obstacle
    {
        type            zeroGradient;
    }
    defaultFaces
    {
        type            empty;
    }
}


// ************************************************************************* //
