/*--------------------------------*- C++ -*----------------------------------*\
| =========                 |                                                 |
| \\      /  F ield         | OpenFOAM: The Open Source CFD Toolbox           |
|  \\    /   O peration     | Version:  5.x                                   |
|   \\  /    A nd           | Web:      www.OpenFOAM.org                      |
|    \\/     M anipulation  |                                                 |
\*---------------------------------------------------------------------------*/
/*   Windows 32 and 64 bit porting by blueCAPE: http://www.bluecape.com.pt   *\
|  Based on Windows porting (2.0.x v4) by Symscape: http://www.symscape.com   |
\*---------------------------------------------------------------------------*/
FoamFile
{
    version     2.0;
    format      ascii;
    class       surfaceScalarField;
    location    "0.0015";
    object      phi;
}
// * * * * * * * * * * * * * * * * * * * * * * * * * * * * * * * * * * * * * //

dimensions      [1 0 -1 0 0 0 0];

internalField   nonuniform List<scalar> 
174
(
0.489209
4.83546e-009
8.22214
-3.71817e-007
26.1173
1.09452e-005
4.98244
-0.000342098
1.07152
0.00182589
-0.0251813
0.327154
1.19445e-008
5.49848
-6.64087e-007
17.4657
2.94542e-005
3.33177
-0.000657245
0.716662
0.00446677
-0.0535887
0.218781
1.76988e-008
3.67705
-8.13112e-007
11.68
4.73335e-005
2.22788
-0.000864461
0.479311
0.00752262
-0.081265
0.146308
2.04278e-008
2.45899
-8.6443e-007
7.8109
5.81622e-005
1.48973
-0.0009691
0.320555
0.0103509
-0.104883
0.0978417
2.13199e-008
1.64443
-8.68701e-007
5.22347
6.37283e-005
0.996165
-0.00101519
0.214426
0.0126057
-0.123316
0.415278
1.11102e-008
6.97959
-5.94749e-007
22.1705
3.0509e-005
4.227
-0.000616549
0.932352
0.00589029
-0.0623208
0.0955291
0.738481
3.2893e-009
12.4116
-2.30314e-007
39.4254
7.71294e-006
7.51564
-0.000223909
1.65953
0.00133508
-0.0165489
0.171956
1.31322
5.32042e-010
22.0714
-4.45532e-008
70.1094
1.21378e-006
13.3639
-4.35635e-005
2.95258
0.000242449
-0.00324261
0.30762
2.33528
2.24958e-011
39.2491
-3.24436e-009
124.674
3.187e-008
23.7646
-2.94134e-006
5.25084
1.15158e-005
-0.000184881
0.547373
4.15278
69.7958
221.705
42.26
9.33755
0.973459
0.0357372
-0.000369159
-0.000163736
0.011641
0.0643904
-0.000192703
-0.000102105
0.0205872
0.115261
-4.08661e-005
-2.05271e-005
0.0365532
0.205108
-2.80669e-006
-1.34971e-006
0.0650112
0.364772
0.115611
1.21048e-005
-0.000423446
5.82809e-006
-7.96363e-005
-1.11362e-005
2.63898e-005
-0.0011532
1.30743e-005
-0.000237153
-2.74652e-005
4.36052e-005
-0.00214827
2.20891e-005
-0.000477164
-4.41149e-005
5.28101e-005
-0.00318209
2.72534e-005
-0.000746025
-5.45254e-005
5.01367e-005
-0.00407706
2.58727e-005
-0.000987903
-5.98181e-005
0.00290761
-0.00171711
0.000224603
-0.000387059
-2.79428e-005
0.00519002
-0.000290219
0.000468883
-5.14551e-005
-7.24103e-006
0.00925503
-4.99152e-005
0.00088636
-8.36573e-006
-1.20008e-006
0.0164673
-1.88654e-006
0.00158217
-2.65461e-007
-5.28409e-008
0.0292856
0.00281477
)
;

boundaryField
{
    inlet
    {
        type            calculated;
        value           nonuniform List<scalar> 10(-0.0442364 -0.0786646 -0.139888 -0.248759 -0.442364 -0.0521116 -0.0348491 -0.023305 -0.015585 -0.0104223);
    }
    outlet
    {
        type            calculated;
        value           nonuniform List<scalar> 10(7.85779e-006 1.58823e-005 2.96027e-005 5.27688e-005 9.38625e-005 1.32288e-007 3.34939e-007 6.23355e-007 8.38248e-007 8.33588e-007);
    }
    bottom
    {
        type            symmetryPlane;
        value           uniform 0;
    }
    top
    {
        type            symmetryPlane;
        value           uniform 0;
    }
    obstacle
    {
        type            calculated;
        value           nonuniform List<scalar> 
12
(
0.290092
0.193853
0.129466
0.0864523
0.0578222
-8.86735e-006
-1.97329e-005
-3.31085e-005
-4.0591e-005
-3.89947e-005
0.000329872
0.000117597
)
;
    }
    defaultFaces
    {
        type            empty;
        value           nonuniform 0();
    }
}


// ************************************************************************* //
