/*--------------------------------*- C++ -*----------------------------------*\
| =========                 |                                                 |
| \\      /  F ield         | OpenFOAM: The Open Source CFD Toolbox           |
|  \\    /   O peration     | Version:  5.x                                   |
|   \\  /    A nd           | Web:      www.OpenFOAM.org                      |
|    \\/     M anipulation  |                                                 |
\*---------------------------------------------------------------------------*/
/*   Windows 32 and 64 bit porting by blueCAPE: http://www.bluecape.com.pt   *\
|  Based on Windows porting (2.0.x v4) by Symscape: http://www.symscape.com   |
\*---------------------------------------------------------------------------*/
FoamFile
{
    version     2.0;
    format      ascii;
    class       volScalarField;
    location    "0.0015";
    object      T;
}
// * * * * * * * * * * * * * * * * * * * * * * * * * * * * * * * * * * * * * //

dimensions      [0 0 0 1 0 0 0];

internalField   nonuniform List<scalar> 
100
(
348.378
345.952
319.845
405.293
315.016
282.811
348.378
345.952
319.845
405.293
315.013
282.867
348.378
345.952
319.845
405.293
315.008
282.942
348.378
345.952
319.845
405.293
315.004
283.012
348.378
345.952
319.845
405.293
315
283.069
348.378
345.952
319.845
405.293
314.995
283.213
348.378
345.952
319.845
405.294
314.987
283.344
348.378
345.952
319.845
405.294
314.983
283.415
348.378
345.952
319.845
405.294
314.983
283.424
348.378
345.952
319.845
405.294
314.983
283.425
279.65
279.041
279.656
279.046
279.66
279.048
279.661
279.049
279.661
279.049
278.748
278.746
278.746
278.752
278.746
278.746
278.759
278.747
278.746
278.768
278.748
278.746
278.776
278.748
278.746
278.802
278.751
278.746
278.813
278.752
278.746
278.818
278.752
278.746
278.819
278.752
278.746
278.819
278.752
278.746
)
;

boundaryField
{
    inlet
    {
        type            zeroGradient;
    }
    outlet
    {
        type            zeroGradient;
    }
    bottom
    {
        type            symmetryPlane;
    }
    top
    {
        type            symmetryPlane;
    }
    obstacle
    {
        type            zeroGradient;
    }
    defaultFaces
    {
        type            empty;
    }
}


// ************************************************************************* //
