/*--------------------------------*- C++ -*----------------------------------*\
| =========                 |                                                 |
| \\      /  F ield         | OpenFOAM: The Open Source CFD Toolbox           |
|  \\    /   O peration     | Version:  5.x                                   |
|   \\  /    A nd           | Web:      www.OpenFOAM.org                      |
|    \\/     M anipulation  |                                                 |
\*---------------------------------------------------------------------------*/
/*   Windows 32 and 64 bit porting by blueCAPE: http://www.bluecape.com.pt   *\
|  Based on Windows porting (2.0.x v4) by Symscape: http://www.symscape.com   |
\*---------------------------------------------------------------------------*/
FoamFile
{
    version     2.0;
    format      ascii;
    class       volVectorField;
    location    "0.0015";
    object      U;
}
// * * * * * * * * * * * * * * * * * * * * * * * * * * * * * * * * * * * * * //

dimensions      [0 1 -1 0 0 0 0];

internalField   nonuniform List<vector> 
100
(
(0.27903 3.84204e-010 0)
(3.96634 -5.22363e-008 0)
(54.1063 1.67356e-006 0)
(212.877 -0.000303539 0)
(99.1802 0.00375918 0)
(11.9731 -0.0880113 0)
(0.27903 1.60093e-009 0)
(3.96635 -1.49597e-007 0)
(54.1063 7.90107e-006 0)
(212.877 -0.000930605 0)
(99.1697 0.0144481 0)
(11.958 -0.296371 0)
(0.27903 3.06728e-009 0)
(3.96635 -2.16281e-007 0)
(54.1063 1.67103e-005 0)
(212.877 -0.00145654 0)
(99.1532 0.029915 0)
(11.9338 -0.534802 0)
(0.27903 3.96738e-009 0)
(3.96635 -2.4503e-007 0)
(54.1063 2.31771e-005 0)
(212.878 -0.00175497 0)
(99.1359 0.0441163 0)
(11.9084 -0.72543 0)
(0.27903 4.45301e-009 0)
(3.96635 -2.54637e-007 0)
(54.1063 2.81045e-005 0)
(212.878 -0.00194203 0)
(99.1217 0.0627404 0)
(11.9036 -0.970188 0)
(0.27903 3.26033e-009 0)
(3.96635 -2.13043e-007 0)
(54.1063 1.99875e-005 0)
(212.879 -0.00154674 0)
(99.0791 0.0465057 0)
(13.7612 -0.732553 0)
(0.279029 1.12458e-009 0)
(3.96635 -1.06938e-007 0)
(54.1062 5.56867e-006 0)
(212.88 -0.000672625 0)
(99.0524 0.0108432 0)
(13.7788 -0.203192 0)
(0.279029 2.09117e-010 0)
(3.96635 -2.41138e-008 0)
(54.1062 1.01663e-006 0)
(212.88 -0.000152259 0)
(99.0392 0.0022991 0)
(13.7874 -0.0464035 0)
(0.279029 8.98929e-012 0)
(3.96635 -1.80216e-009 0)
(54.1062 2.66287e-008 0)
(212.88 -1.0494e-005 0)
(99.0379 0.000109883 0)
(13.7882 -0.00267897 0)
(0.279029 2.65183e-013 0)
(3.96635 -1.09771e-010 0)
(54.1062 1.30744e-009 0)
(212.88 -6.69015e-007 0)
(99.0377 6.9372e-006 0)
(13.7883 -0.000179082 0)
(2.78193 -0.0107856 0)
(0.946021 -0.00396478 0)
(2.8434 -0.00926042 0)
(0.943874 -0.00507955 0)
(2.87367 -0.00231742 0)
(0.943644 -0.00119515 0)
(2.87675 -0.000162813 0)
(0.943818 -8.00045e-005 0)
(2.87714 -1.0995e-005 0)
(0.943844 -5.22359e-006 0)
(0.000399937 -0.00404021 0)
(0.000405969 -0.000228964 0)
(6.03714e-006 -1.11162e-005 0)
(0.00131943 -0.0170706 0)
(0.00134204 -0.00104644 0)
(2.2657e-005 -4.4537e-005 0)
(0.00328983 -0.0400621 0)
(0.00335234 -0.00270929 0)
(6.26587e-005 -8.91489e-005 0)
(0.00600216 -0.0639591 0)
(0.00612732 -0.00461222 0)
(0.000125303 -0.000124091 0)
(0.00859486 -0.0987218 0)
(0.00865587 -0.00748985 0)
(0.000185812 -0.000150059 0)
(0.218082 -0.0712643 0)
(0.0175387 -0.00532033 0)
(0.000410612 -0.000106171 0)
(0.216728 -0.0117559 0)
(0.0206424 -0.000673081 0)
(0.00046716 -2.99831e-005 0)
(0.216396 -0.0023579 0)
(0.0219698 -0.000127721 0)
(0.000489859 -5.74943e-006 0)
(0.216461 -8.87134e-005 0)
(0.0220568 -4.0137e-006 0)
(0.000491065 -2.53802e-007 0)
(0.21647 -5.41431e-006 0)
(0.0220669 -2.34638e-007 0)
(0.000491199 -1.4584e-008 0)
)
;

boundaryField
{
    inlet
    {
        type            zeroGradient;
    }
    outlet
    {
        type            zeroGradient;
    }
    bottom
    {
        type            symmetryPlane;
    }
    top
    {
        type            symmetryPlane;
    }
    obstacle
    {
        type            zeroGradient;
    }
    defaultFaces
    {
        type            empty;
    }
}


// ************************************************************************* //
