/*--------------------------------*- C++ -*----------------------------------*\
| =========                 |                                                 |
| \\      /  F ield         | OpenFOAM: The Open Source CFD Toolbox           |
|  \\    /   O peration     | Version:  5.x                                   |
|   \\  /    A nd           | Web:      www.OpenFOAM.org                      |
|    \\/     M anipulation  |                                                 |
\*---------------------------------------------------------------------------*/
/*   Windows 32 and 64 bit porting by blueCAPE: http://www.bluecape.com.pt   *\
|  Based on Windows porting (2.0.x v4) by Symscape: http://www.symscape.com   |
\*---------------------------------------------------------------------------*/
FoamFile
{
    version     2.0;
    format      ascii;
    class       volScalarField;
    location    "0.008";
    object      mag(U);
}
// * * * * * * * * * * * * * * * * * * * * * * * * * * * * * * * * * * * * * //

dimensions      [0 1 -1 0 0 0 0];

internalField   nonuniform List<scalar> 
10000
(
0.00397845
0.0194229
0.072485
0.248095
0.747725
1.98536
4.65804
9.68898
17.8352
29.1946
43.0726
58.3265
74.0385
89.6546
104.971
119.902
134.415
148.449
162.01
175.007
187.514
199.435
210.689
221.323
231.361
240.677
249.144
256.766
263.613
269.699
274.989
279.358
282.749
285.362
287.428
289
290.109
290.885
291.388
291.63
291.75
291.885
292.071
292.383
292.859
293.514
294.359
295.388
296.591
297.951
299.459
301.114
302.916
304.825
306.633
308.511
310.57
312.633
314.698
316.502
0.00394607
0.0192046
0.0714511
0.244149
0.73515
1.95135
4.57927
9.53345
17.5724
28.8107
42.5785
57.7491
73.4064
88.9903
104.291
119.219
133.742
147.801
161.394
174.438
187.007
198.988
210.313
221.048
231.195
240.617
249.193
256.945
263.951
270.212
275.671
280.199
283.755
286.499
288.704
290.445
291.71
292.619
293.259
293.623
293.807
293.946
294.11
294.345
294.644
295.035
295.534
296.13
296.812
297.575
298.414
299.341
300.376
301.518
302.553
303.613
304.781
305.93
307.057
307.815
0.00394342
0.019188
0.0713825
0.243938
0.734667
1.95054
4.57847
9.53362
17.5757
28.8188
42.5905
57.7599
73.4088
88.9752
104.249
119.143
133.618
147.634
161.143
174.161
186.627
198.519
209.82
220.474
230.479
239.798
248.336
256.051
262.958
269.078
274.417
278.881
282.401
285.127
287.281
288.941
290.135
290.967
291.536
291.831
291.948
292.05
292.152
292.259
292.425
292.683
293.009
293.388
293.808
294.268
294.775
295.347
296.011
296.78
297.44
298.114
298.92
299.707
300.555
301.182
0.00391741
0.0190129
0.0705451
0.240712
0.724255
1.92202
4.51152
9.39988
17.3471
28.4813
42.1518
57.2435
72.8398
88.3744
103.631
118.521
133.003
147.046
160.567
173.666
186.147
198.081
209.501
220.245
230.283
239.673
248.373
256.276
263.329
269.536
274.936
279.516
283.228
286.126
288.465
290.311
291.612
292.515
293.18
293.571
293.736
293.851
293.961
294.063
294.13
294.191
294.26
294.313
294.343
294.354
294.362
294.404
294.519
294.714
294.833
294.926
295.136
295.319
295.515
295.498
0.00390949
0.0189675
0.0703613
0.24011
0.722671
1.91857
4.50528
9.39036
17.3358
28.4707
42.1427
57.2324
72.8217
88.341
103.574
118.434
132.874
146.872
160.334
173.37
185.797
197.658
209.003
219.684
229.652
238.951
247.553
255.378
262.365
268.508
273.847
278.354
281.99
284.832
287.091
288.865
290.133
290.978
291.568
291.894
291.994
292.064
292.127
292.163
292.203
292.283
292.394
292.51
292.613
292.697
292.772
292.867
293.021
293.242
293.388
293.449
293.556
293.608
293.679
293.562
0.00388779
0.0188233
0.0696715
0.237439
0.713984
1.89453
4.44821
9.27515
17.1367
28.1731
41.752
56.7693
72.3082
87.7965
103.013
117.865
132.313
146.325
159.823
172.892
185.356
197.285
208.686
219.414
229.469
238.895
247.62
255.531
262.601
268.86
274.336
279.019
282.828
285.762
288.133
290.018
291.35
292.297
293.021
293.457
293.627
293.738
293.832
293.895
293.915
293.94
293.979
294.004
294.005
293.983
293.951
293.936
293.979
294.091
294.142
294.082
294.095
294.015
293.822
293.43
0.00387677
0.0187604
0.0694153
0.23658
0.711643
1.88919
4.43792
9.25822
17.114
28.1477
41.7265
56.7412
72.2741
87.749
102.945
117.771
132.181
146.153
159.593
172.606
185.025
196.883
208.219
218.899
228.887
238.219
246.85
254.698
261.72
267.927
273.349
277.954
281.693
284.577
286.872
288.715
290.039
290.921
291.559
291.929
292.045
292.122
292.189
292.23
292.276
292.387
292.558
292.763
292.98
293.196
293.417
293.662
293.962
294.326
294.613
294.79
295.013
295.117
295.096
294.86
0.00385793
0.0186379
0.0688347
0.234333
0.704314
1.86879
4.38903
9.15863
16.9401
27.8851
41.3777
56.3246
71.8094
87.2541
102.433
117.249
131.665
145.65
159.123
172.167
184.615
196.534
207.921
218.641
228.706
238.153
246.899
254.831
261.929
268.233
273.764
278.527
282.424
285.405
287.812
289.737
291.102
292.084
292.856
293.331
293.511
293.632
293.744
293.82
293.869
293.956
294.079
294.218
294.36
294.5
294.642
294.81
295.038
295.342
295.568
295.706
295.914
296.042
296.017
295.716
0.00384529
0.0185657
0.0685377
0.23332
0.70149
1.86216
4.37587
9.13623
16.9086
27.848
41.3393
56.2835
71.7633
87.1964
102.357
117.151
131.533
145.48
158.899
171.894
184.303
196.155
207.485
218.166
228.17
237.527
246.184
254.058
261.116
267.383
272.875
277.564
281.393
284.323
286.663
288.571
289.946
290.868
291.544
291.946
292.083
292.172
292.239
292.271
292.313
292.44
292.644
292.897
293.176
293.469
293.774
294.104
294.491
294.957
295.349
295.633
295.965
296.244
296.379
296.248
0.0038284
0.0184587
0.0680382
0.231395
0.695223
1.84467
4.33372
9.04977
16.7564
27.6158
41.0274
55.9079
71.3415
86.7453
101.888
116.672
131.058
145.016
158.467
171.488
183.917
195.828
207.204
217.917
227.987
237.45
246.218
254.174
261.3
267.642
273.218
278.048
282.029
285.068
287.51
289.466
290.868
291.885
292.693
293.199
293.383
293.499
293.605
293.665
293.692
293.766
293.891
294.044
294.208
294.38
294.563
294.77
295.035
295.387
295.695
295.93
296.198
296.426
296.534
296.376
0.00381509
0.0183825
0.0677223
0.230303
0.692125
1.83725
4.31863
9.02352
16.7185
27.5697
40.9789
55.8568
71.2868
86.6804
101.807
116.572
130.927
144.851
158.248
171.229
183.626
195.471
206.798
217.484
227.495
236.869
245.553
253.461
260.558
266.873
272.418
277.178
281.088
284.076
286.469
288.438
289.866
290.827
291.539
291.979
292.144
292.243
292.306
292.329
292.356
292.471
292.67
292.924
293.205
293.501
293.81
294.14
294.523
294.983
295.399
295.719
296.019
296.286
296.454
296.375
0.0037996
0.0182868
0.0672836
0.228624
0.686692
1.82211
4.28203
8.94804
16.5847
27.3639
40.6995
55.5174
70.9026
86.2679
101.377
116.13
130.488
144.422
157.852
170.852
183.262
195.165
206.532
217.239
227.311
236.784
245.574
253.557
260.71
267.084
272.698
277.584
281.641
284.745
287.225
289.209
290.649
291.706
292.547
293.086
293.29
293.412
293.527
293.59
293.612
293.684
293.823
293.999
294.19
294.394
294.617
294.861
295.154
295.528
295.895
296.194
296.442
296.641
296.719
296.583
0.0037862
0.0182101
0.0669635
0.227505
0.683472
1.81426
4.26578
8.91929
16.5423
27.3113
40.6434
55.4589
70.8419
86.1984
101.294
116.031
130.361
144.262
157.639
170.607
182.992
194.829
206.155
216.845
226.863
236.249
244.959
252.9
260.035
266.393
271.982
276.803
280.79
283.839
286.286
288.309
289.787
290.785
291.531
292.015
292.219
292.335
292.407
292.447
292.493
292.627
292.86
293.162
293.5
293.86
294.245
294.652
295.099
295.613
296.127
296.54
296.869
297.088
297.194
297.153
0.00377178
0.018123
0.0665716
0.226019
0.678697
1.80101
4.23373
8.85299
16.4242
27.1283
40.3926
55.1516
70.4912
85.8202
100.898
115.622
129.955
143.865
157.277
170.255
182.646
194.543
205.901
216.603
226.676
236.158
244.966
252.975
260.155
266.558
272.207
277.142
281.265
284.437
286.957
288.966
290.444
291.543
292.411
292.983
293.219
293.362
293.502
293.596
293.646
293.757
293.957
294.214
294.5
294.818
295.172
295.553
295.98
296.482
297.021
297.475
297.827
298.036
298.154
298.131
0.00375864
0.0180478
0.0662566
0.224907
0.675462
1.79302
4.21692
8.82281
16.379
27.0712
40.3311
55.0878
70.4265
85.7482
100.815
115.525
129.832
143.71
157.071
170.025
182.398
194.23
205.553
216.246
226.269
235.668
244.402
252.374
259.541
265.937
271.568
276.448
280.507
283.617
286.112
288.18
289.703
290.741
291.523
292.055
292.306
292.453
292.548
292.628
292.723
292.912
293.219
293.612
294.059
294.55
295.081
295.642
296.243
296.905
297.609
298.246
298.666
298.916
299.173
299.256
0.00374512
0.0179677
0.0659017
0.223573
0.671214
1.78129
4.18862
8.76419
16.2742
26.9079
40.1053
54.8089
70.1056
85.4003
100.449
115.145
129.455
143.342
156.737
169.694
182.068
193.961
205.31
216.004
226.078
235.571
244.397
252.426
259.627
266.059
271.746
276.726
280.909
284.146
286.705
288.734
290.248
291.39
292.287
292.891
293.167
293.341
293.515
293.648
293.745
293.916
294.199
294.557
294.967
295.434
295.954
296.513
297.12
297.798
298.538
299.26
299.742
300.035
300.364
300.49
0.00373244
0.0178952
0.0655975
0.222493
0.668037
1.77335
4.1717
8.73342
16.2274
26.848
40.0401
54.7416
70.0386
85.3274
100.367
115.052
129.337
143.194
156.54
169.481
181.84
193.67
204.99
215.681
225.711
235.126
243.881
251.878
259.073
265.503
271.175
276.114
280.24
283.408
285.947
288.05
289.612
290.691
291.51
292.087
292.387
292.566
292.687
292.807
292.956
293.207
293.59
294.074
294.63
295.25
295.924
296.636
297.392
298.21
299.088
299.964
300.534
300.878
301.337
301.578
0.00371972
0.0178209
0.0652729
0.221283
0.664217
1.76287
4.1465
8.68123
16.1339
26.7018
39.8364
54.4879
69.7442
85.0068
100.027
114.698
128.986
142.852
156.232
169.167
181.525
193.416
204.754
215.44
225.517
235.02
243.862
251.908
259.128
265.587
271.31
276.334
280.572
283.871
286.466
288.513
290.059
291.242
292.167
292.799
293.115
293.318
293.519
293.683
293.819
294.041
294.386
294.818
295.321
295.896
296.537
297.226
297.966
298.777
299.673
300.618
301.267
301.667
302.194
302.5
0.00370759
0.0177518
0.0649825
0.220246
0.661147
1.75512
4.1298
8.65053
16.0867
26.6404
39.769
54.4185
69.6762
84.934
99.948
114.61
128.874
142.71
156.044
168.971
181.318
193.147
204.462
215.151
225.188
234.617
243.393
251.412
258.631
265.093
270.805
275.797
279.981
283.209
285.794
287.922
289.515
290.636
291.491
292.106
292.445
292.652
292.79
292.933
293.115
293.4
293.817
294.338
294.938
295.608
296.339
297.114
297.938
298.829
299.81
300.84
301.564
302.028
302.635
303.04
0.00369561
0.0176826
0.0646836
0.219139
0.65768
1.74567
4.10717
8.60373
16.0028
26.5089
39.5847
54.1872
69.4056
84.6379
99.6325
114.279
128.547
142.392
155.757
168.673
181.015
192.905
204.233
214.911
224.99
234.504
243.359
251.42
258.658
265.14
270.898
275.965
280.255
283.611
286.24
288.305
289.878
291.099
292.048
292.702
293.052
293.278
293.486
293.653
293.798
294.026
294.368
294.794
295.296
295.872
296.514
297.21
297.964
298.795
299.744
300.793
301.595
302.131
302.796
303.279
0.0036841
0.0176172
0.0644087
0.218154
0.654745
1.73821
4.09093
8.57359
15.9559
26.4473
39.5165
54.1171
69.3376
84.5663
99.5564
114.196
128.441
142.257
155.581
168.494
180.827
192.659
203.968
214.653
224.696
234.141
242.937
250.975
258.215
264.706
270.455
275.497
279.734
283.022
285.652
287.797
289.417
290.578
291.467
292.109
292.478
292.7
292.831
292.961
293.128
293.383
293.753
294.209
294.738
295.334
295.986
296.686
297.44
298.27
299.227
300.283
301.145
301.738
302.437
303.022
0.00367282
0.0175526
0.064132
0.217136
0.651576
1.72962
4.07047
8.53134
15.8802
26.3284
39.349
53.9055
69.0884
84.2922
99.2622
113.887
128.136
141.961
155.313
168.21
180.537
192.426
203.744
214.413
224.496
234.02
242.888
250.961
258.214
264.719
270.511
275.619
279.958
283.369
286.031
288.111
289.709
290.967
291.937
292.605
292.98
293.216
293.404
293.536
293.641
293.808
294.062
294.382
294.77
295.226
295.742
296.314
296.948
297.666
298.524
299.518
300.403
301.022
301.731
302.4
0.00366193
0.0174909
0.063873
0.216206
0.648794
1.7225
4.05485
8.50212
15.8344
26.2676
39.2811
53.8357
69.0212
84.2225
99.1903
113.809
128.037
141.833
155.149
168.046
180.368
192.205
203.506
214.183
224.237
233.701
242.513
250.564
257.82
264.339
270.131
275.223
279.511
282.859
285.531
287.685
289.327
290.531
291.455
292.117
292.512
292.743
292.849
292.94
293.055
293.231
293.49
293.814
294.203
294.648
295.136
295.668
296.253
296.917
297.719
298.645
299.523
300.112
300.734
301.429
0.00365131
0.0174305
0.0636161
0.215264
0.64588
1.71464
4.03621
8.46373
15.7657
26.1595
39.1284
53.6417
68.7912
83.9683
98.9152
113.518
127.752
141.553
154.905
167.759
180.108
191.982
203.263
213.955
224.066
233.576
242.424
250.515
257.815
264.363
270.183
275.311
279.679
283.141
285.848
287.958
289.591
290.891
291.884
292.565
292.967
293.221
293.392
293.494
293.565
293.668
293.829
294.04
294.303
294.618
294.976
295.377
295.832
296.365
297.043
297.861
298.681
299.223
299.788
300.458
0.00364105
0.0173726
0.063373
0.21439
0.643257
1.7079
4.02132
8.4357
15.7213
26.1003
39.0616
53.573
68.7256
83.9011
98.8479
113.447
127.66
141.432
154.763
167.59
179.98
191.785
203.013
213.757
223.883
233.294
242.032
250.112
257.485
264.101
269.907
274.957
279.214
282.608
285.366
287.597
289.31
290.574
291.525
292.179
292.574
292.804
292.89
292.963
293.067
293.21
293.403
293.646
293.938
294.259
294.598
294.957
295.349
295.808
296.408
297.152
297.91
298.376
298.858
299.481
0.00363108
0.0173161
0.0631339
0.213517
0.640565
1.70067
4.00424
8.40059
15.6585
26.0015
38.9218
53.3946
68.5127
83.6647
98.5902
113.173
127.392
141.17
154.525
167.329
179.709
191.569
202.787
213.512
223.684
233.16
241.936
250.036
257.43
264.07
269.909
274.991
279.315
282.805
285.589
287.784
289.495
290.848
291.854
292.52
292.918
293.167
293.316
293.401
293.471
293.564
293.69
293.848
294.044
294.262
294.492
294.735
295.004
295.334
295.801
296.429
297.1
297.519
297.955
298.511
0.00362143
0.0172617
0.0629062
0.212698
0.638103
1.69432
3.99015
8.37392
15.616
25.9444
38.8569
53.3278
68.4493
83.6005
98.5276
113.107
127.306
141.061
154.387
167.197
179.576
191.391
202.599
213.336
223.486
232.912
241.638
249.717
257.127
263.793
269.635
274.702
278.967
282.395
285.197
287.461
289.214
290.532
291.519
292.179
292.587
292.828
292.909
292.974
293.075
293.202
293.356
293.538
293.749
293.967
294.172
294.366
294.566
294.809
295.178
295.721
296.303
296.635
296.994
297.475
0.00361206
0.0172089
0.0626834
0.211886
0.635607
1.68763
3.9744
8.34161
15.5584
25.8537
38.7283
53.1631
68.2518
83.3802
98.2856
112.85
127.053
140.813
154.159
166.947
179.315
191.176
202.381
213.099
223.279
232.764
241.54
249.642
257.056
263.727
269.598
274.703
279.046
282.572
285.39
287.608
289.348
290.738
291.772
292.455
292.879
293.152
293.301
293.38
293.449
293.527
293.616
293.717
293.838
293.96
294.066
294.156
294.246
294.368
294.608
295.033
295.504
295.763
296.05
296.43
0.003603
0.017158
0.0624706
0.21112
0.633303
1.68168
3.96115
8.31642
15.518
25.7991
38.6659
53.0988
68.1911
83.3194
98.2278
112.79
126.975
140.715
154.033
166.83
179.198
191.016
202.219
212.951
223.107
232.544
241.28
249.371
256.799
263.49
269.362
274.459
278.753
282.225
285.063
287.342
289.114
290.472
291.495
292.171
292.602
292.863
292.948
293.013
293.109
293.218
293.333
293.458
293.594
293.72
293.811
293.866
293.904
293.956
294.113
294.457
294.843
295.004
295.176
295.443
0.00359422
0.0171086
0.0622626
0.210363
0.630981
1.67547
3.94655
8.28653
15.4648
25.7154
38.5472
52.9462
68.0074
83.1137
98.0004
112.548
126.736
140.479
153.814
166.59
178.947
190.804
202.004
212.717
222.897
232.386
241.169
249.283
256.712
263.402
269.296
274.427
278.795
282.363
285.22
287.455
289.218
290.636
291.69
292.389
292.838
293.135
293.287
293.365
293.435
293.504
293.567
293.628
293.698
293.757
293.782
293.771
293.738
293.71
293.779
294.03
294.326
294.411
294.482
294.621
0.00358573
0.0170611
0.0620639
0.209649
0.628832
1.66991
3.93416
8.26289
15.4268
25.6636
38.4878
52.8849
67.9497
83.0565
97.9474
112.493
126.665
140.391
153.701
166.488
178.845
190.663
201.864
212.593
222.75
232.194
240.945
249.054
256.499
263.204
269.096
274.222
278.552
282.073
284.951
287.242
289.028
290.419
291.471
292.162
292.616
292.901
292.995
293.066
293.166
293.269
293.365
293.458
293.556
293.637
293.674
293.663
293.618
293.565
293.596
293.799
294.048
294.056
294.012
294.026
0.0035775
0.0170148
0.0618696
0.208942
0.626665
1.66412
3.92056
8.23508
15.3773
25.586
38.3777
52.7432
67.7785
82.864
97.7331
112.264
126.439
140.167
153.491
166.257
178.602
190.454
201.65
212.361
222.538
232.029
240.822
248.95
256.393
263.096
269.009
274.164
278.56
282.169
285.066
287.317
289.098
290.541
291.612
292.327
292.802
293.124
293.286
293.369
293.45
293.526
293.588
293.643
293.707
293.76
293.775
293.746
293.681
293.606
293.605
293.764
293.976
293.933
293.806
293.7
0.00356955
0.0169704
0.0616844
0.208278
0.624667
1.65895
3.90902
8.21302
15.3417
25.5373
38.3215
52.6851
67.724
82.8106
97.685
112.215
126.375
140.088
153.391
166.168
178.514
190.331
201.531
212.259
222.414
231.864
240.631
248.758
256.217
262.935
268.844
273.996
278.361
281.929
284.846
287.149
288.945
290.365
291.443
292.147
292.623
292.932
293.04
293.124
293.236
293.352
293.456
293.556
293.667
293.766
293.825
293.835
293.802
293.748
293.758
293.915
294.132
294.058
293.86
293.652
0.00356184
0.0169271
0.0615025
0.207616
0.622637
1.65353
3.89629
8.18701
15.2955
25.4649
38.219
52.553
67.564
82.6301
97.4828
111.999
126.161
139.874
153.188
165.945
178.279
190.125
201.319
212.029
222.201
231.691
240.496
248.64
256.097
262.809
268.735
273.913
278.339
281.991
284.929
287.192
288.988
290.452
291.535
292.266
292.767
293.114
293.288
293.386
293.488
293.589
293.676
293.761
293.864
293.964
294.035
294.066
294.055
294.022
294.046
294.207
294.436
294.365
294.141
293.853
0.00355441
0.0168857
0.0613303
0.206999
0.620785
1.64874
3.8856
8.16655
15.2623
25.4195
38.1663
52.4984
67.513
82.5806
97.4394
111.955
126.104
139.804
153.1
165.868
178.205
190.02
201.22
211.946
222.099
231.553
240.336
248.482
255.954
262.679
268.603
273.781
278.182
281.797
284.751
287.063
288.867
290.313
291.411
292.129
292.628
292.962
293.088
293.19
293.325
293.466
293.597
293.731
293.886
294.039
294.165
294.251
294.293
294.306
294.37
294.565
294.84
294.803
294.582
294.248
0.00354719
0.0168451
0.0611597
0.206378
0.618878
1.64364
3.87364
8.14211
15.219
25.3517
38.0704
52.3749
67.3632
82.4109
97.2484
111.75
125.9
139.599
152.904
165.652
177.976
189.816
201.01
211.718
221.885
231.375
240.19
248.351
255.82
262.538
268.477
273.678
278.132
281.825
284.801
287.076
288.883
290.364
291.46
292.207
292.731
293.103
293.291
293.404
293.53
293.66
293.779
293.904
294.057
294.218
294.361
294.473
294.547
294.593
294.689
294.913
295.235
295.257
295.083
294.743
0.00354026
0.0168066
0.0609999
0.205807
0.617168
1.63923
3.86379
8.12324
15.1884
25.3095
38.0213
52.3239
67.3157
82.3654
97.2096
111.711
125.85
139.539
152.828
165.588
177.915
189.729
200.929
211.653
221.803
231.262
240.059
248.222
255.706
262.438
268.375
273.578
278.013
281.671
284.661
286.979
288.789
290.258
291.373
292.105
292.626
292.981
293.122
293.238
293.389
293.55
293.701
293.862
294.054
294.252
294.436
294.589
294.705
294.79
294.923
295.188
295.569
295.664
295.558
295.25
0.00353349
0.0167685
0.0608394
0.205222
0.615368
1.63441
3.85248
8.10015
15.1475
25.2457
37.9314
52.2081
67.175
82.2056
97.0287
111.517
125.656
139.342
152.637
165.379
177.692
189.527
200.719
211.426
221.589
231.079
239.904
248.078
255.558
262.284
268.235
273.459
277.938
281.667
284.679
286.964
288.779
290.277
291.385
292.145
292.689
293.078
293.272
293.393
293.531
293.678
293.813
293.958
294.141
294.336
294.524
294.689
294.821
294.925
295.079
295.368
295.795
295.963
295.942
295.693
0.00352703
0.0167328
0.0606917
0.204696
0.613796
1.63036
3.84345
8.08285
15.1194
25.2069
37.8859
52.1609
67.1312
82.1641
96.9945
111.483
125.612
139.291
152.574
165.325
177.643
189.457
200.656
211.378
221.527
230.989
239.8
247.978
255.472
262.211
268.162
273.388
277.852
281.549
284.573
286.897
288.715
290.205
291.333
292.075
292.611
292.982
293.13
293.251
293.406
293.572
293.727
293.892
294.094
294.308
294.513
294.697
294.846
294.967
295.139
295.45
295.92
296.155
296.216
296.037
0.00352067
0.0166969
0.0605401
0.204142
0.612089
1.62579
3.83271
8.06094
15.0806
25.1465
37.8012
52.0519
66.9988
82.0133
96.8231
111.298
125.427
139.101
152.388
165.122
177.427
189.257
200.447
211.152
221.312
230.802
239.635
247.821
255.312
262.047
268.011
273.254
277.755
281.515
284.561
286.858
288.682
290.196
291.317
292.086
292.643
293.043
293.239
293.361
293.503
293.653
293.789
293.935
294.121
294.321
294.517
294.695
294.842
294.961
295.134
295.45
295.943
296.237
296.38
296.27
0.00351468
0.0166639
0.0604043
0.20366
0.610655
1.6221
3.8245
8.04519
15.055
25.111
37.7595
52.0085
66.9586
81.9758
96.7931
111.27
125.39
139.058
152.335
165.079
177.389
189.202
200.4
211.119
221.268
230.736
239.556
247.745
255.25
261.999
267.965
273.211
277.699
281.429
284.485
286.817
288.646
290.156
291.295
292.047
292.595
292.978
293.131
293.251
293.404
293.566
293.712
293.865
294.055
294.258
294.455
294.631
294.775
294.891
295.061
295.378
295.891
296.235
296.447
296.399
0.00350869
0.01663
0.0602602
0.203133
0.609024
1.61773
3.81424
8.0243
15.0181
25.0538
37.6793
51.9057
66.8338
81.8331
96.6305
111.094
125.212
138.875
152.154
164.882
177.178
189.004
200.192
210.895
221.052
230.543
239.383
247.579
255.08
261.824
267.801
273.063
277.583
281.37
284.448
286.758
288.592
290.121
291.254
292.032
292.602
293.012
293.207
293.327
293.467
293.614
293.74
293.871
294.039
294.221
294.398
294.557
294.685
294.784
294.941
295.247
295.761
296.146
296.428
296.435
0.00350317
0.0165997
0.0601366
0.202696
0.607729
1.6144
3.80683
8.01007
14.9949
25.0215
37.6413
51.866
66.7972
81.7996
96.6047
111.07
125.181
138.84
152.112
164.849
177.151
188.963
200.16
210.877
221.024
230.496
239.327
247.529
255.043
261.799
267.777
273.043
277.555
281.318
284.403
286.742
288.58
290.108
291.258
292.02
292.58
292.974
293.132
293.248
293.392
293.542
293.668
293.795
293.956
294.127
294.291
294.435
294.546
294.628
294.767
295.06
295.576
295.996
296.335
296.39
0.00349747
0.0165673
0.0599982
0.202189
0.606159
1.61019
3.79697
7.99003
14.9596
24.967
37.5653
51.7687
66.6792
81.6643
96.4501
110.902
125.011
138.663
151.935
164.657
176.944
188.765
199.954
210.655
220.807
230.299
239.148
247.356
254.864
261.614
267.601
272.881
277.423
281.239
284.347
286.668
288.507
290.048
291.195
291.982
292.563
292.982
293.176
293.291
293.422
293.554
293.659
293.761
293.896
294.041
294.179
294.298
294.385
294.442
294.557
294.827
295.33
295.777
296.174
296.271
0.00349245
0.01654
0.0598874
0.201798
0.605005
1.60723
3.79037
7.9773
14.9387
24.9379
37.5308
51.7328
66.6463
81.6348
96.4283
110.883
124.987
138.637
151.903
164.634
176.928
188.738
199.937
210.652
220.795
230.271
239.114
247.328
254.849
261.608
267.598
272.883
277.42
281.216
284.329
286.673
288.517
290.059
291.219
291.992
292.562
292.966
293.125
293.231
293.358
293.486
293.581
293.67
293.788
293.915
294.033
294.129
294.194
294.227
294.316
294.562
295.051
295.519
295.961
296.091
0.00348697
0.0165086
0.0597527
0.201305
0.603477
1.60314
3.78082
7.95799
14.9049
24.8858
37.4586
51.6405
66.5345
81.5062
96.2812
110.723
124.823
138.465
151.729
164.446
176.726
188.542
199.731
210.43
220.578
230.07
238.927
247.146
254.662
261.416
267.413
272.711
277.275
281.118
284.252
286.583
288.426
289.978
291.137
291.932
292.521
292.946
293.133
293.236
293.35
293.461
293.536
293.601
293.695
293.798
293.892
293.963
294.002
294.008
294.066
294.282
294.743
295.22
295.705
295.863
0.00348249
0.0164845
0.0596557
0.200963
0.602469
1.60055
3.77502
7.94674
14.8864
24.8598
37.4276
51.6082
66.505
81.4805
96.2633
110.708
124.804
138.446
151.708
164.432
176.719
188.529
199.726
210.439
220.582
230.061
238.913
247.137
254.665
261.43
267.43
272.733
277.292
281.117
284.255
286.605
288.454
290.01
291.18
291.961
292.538
292.949
293.104
293.195
293.302
293.404
293.467
293.518
293.595
293.681
293.756
293.806
293.823
293.802
293.83
294.014
294.446
294.927
295.435
295.602
0.00347709
0.0164534
0.0595223
0.200476
0.600964
1.59654
3.76572
7.92803
14.8537
24.8099
37.3587
51.5205
66.3989
81.3581
96.1229
110.554
124.646
138.279
151.537
164.248
176.521
188.334
199.521
210.217
220.364
229.857
238.719
246.945
254.47
261.232
267.24
272.554
277.135
280.999
284.159
286.504
288.354
289.919
291.092
291.892
292.486
292.916
293.096
293.187
293.285
293.377
293.428
293.463
293.525
293.593
293.651
293.683
293.677
293.631
293.628
293.774
294.169
294.638
295.164
295.33
0.00347328
0.0164332
0.0594409
0.200189
0.600113
1.59433
3.76071
7.91822
14.8374
24.7868
37.3309
51.4914
66.3725
81.3357
96.108
110.544
124.632
138.266
151.523
164.241
176.522
188.332
199.527
210.237
220.381
229.864
238.724
246.956
254.493
261.268
267.282
272.601
277.178
281.029
284.195
286.558
288.419
289.991
291.174
291.963
292.545
292.961
293.114
293.193
293.284
293.37
293.411
293.433
293.482
293.538
293.581
293.596
293.571
293.503
293.473
293.588
293.947
294.406
294.931
295.071
0.00346777
0.0164013
0.0593053
0.199698
0.598605
1.59035
3.7515
7.8997
14.805
24.7369
37.2618
51.403
66.2651
81.2111
95.965
110.386
124.469
138.093
151.342
164.049
176.314
188.124
199.31
210.006
220.152
229.646
238.514
246.75
254.286
261.06
267.081
272.41
277.006
280.893
284.081
286.445
288.308
289.888
291.076
291.881
292.479
292.916
293.095
293.182
293.275
293.362
293.402
293.419
293.458
293.503
293.534
293.534
293.494
293.41
293.357
293.445
293.771
294.214
294.741
294.853
0.00345762
0.0163496
0.0591007
0.198973
0.596441
1.58462
3.73837
7.87358
14.761
24.6729
37.1815
51.313
66.1751
81.1234
95.8897
110.313
124.385
138.004
151.255
163.975
176.256
188.06
199.268
209.995
220.132
229.601
238.459
246.711
254.281
261.086
267.119
272.455
277.033
280.891
284.102
286.508
288.396
290
291.217
292.008
292.592
293.013
293.151
293.23
293.325
293.412
293.443
293.439
293.458
293.483
293.497
293.482
293.429
293.337
293.267
293.344
293.633
294.109
294.702
296.24
0.00345461
0.0163559
0.0592087
0.199543
0.598687
1.59164
3.75645
7.91241
14.8313
24.782
37.3275
51.4858
66.3601
81.314
96.0745
110.5
124.603
138.233
151.489
164.198
176.466
188.279
199.455
210.145
220.308
229.823
238.694
246.92
254.446
261.215
267.237
272.56
277.156
281.05
284.226
286.563
288.41
289.981
291.146
291.926
292.506
292.926
293.072
293.11
293.154
293.193
293.179
293.134
293.128
293.141
293.148
293.127
293.071
292.989
292.942
293.053
293.405
294.005
294.687
296.26
0.00344248
0.0162977
0.0589848
0.198734
0.596159
1.58458
3.73913
7.87568
14.7646
24.6775
37.1846
51.313
66.1707
81.1169
95.8797
110.303
124.377
137.992
151.257
163.97
176.244
188.068
199.272
209.99
220.132
229.608
238.466
246.715
254.284
261.086
267.124
272.456
277.028
280.907
284.127
286.51
288.385
289.996
291.21
291.995
292.578
292.999
293.125
293.175
293.249
293.314
293.312
293.263
293.24
293.236
293.227
293.189
293.12
293.027
292.971
293.071
293.422
294.106
294.875
296.453
0.00343502
0.016278
0.0589831
0.19892
0.597311
1.58895
3.75197
7.9058
14.8236
24.7755
37.3251
51.4875
66.3663
81.3219
96.0876
110.512
124.617
138.245
151.494
164.207
176.473
188.283
199.456
210.148
220.311
229.824
238.692
246.918
254.447
261.218
267.242
272.564
277.152
281.041
284.22
286.553
288.392
289.963
291.128
291.881
292.44
292.85
292.963
292.973
293.003
293.027
292.996
292.927
292.896
292.901
292.916
292.912
292.882
292.845
292.858
293.042
293.505
294.371
295.273
296.891
0.00342476
0.0162342
0.0588318
0.198394
0.595661
1.58415
3.73944
7.8774
14.7684
24.6831
37.1897
51.3149
66.1679
81.1111
95.8697
110.292
124.368
137.978
151.258
163.966
176.233
188.074
199.275
209.985
220.128
229.61
238.47
246.718
254.281
261.076
267.116
272.444
277.015
280.913
284.138
286.503
288.364
289.976
291.189
291.977
292.561
292.984
293.107
293.139
293.204
293.26
293.249
293.184
293.146
293.143
293.153
293.149
293.116
293.077
293.095
293.288
293.787
294.749
295.728
297.368
0.00341518
0.0162007
0.0587631
0.198324
0.595994
1.58638
3.74761
7.89919
14.8155
24.7679
37.321
51.4875
66.3714
81.3292
96.1009
110.524
124.634
138.259
151.5
164.214
176.48
188.287
199.457
210.15
220.314
229.825
238.691
246.916
254.448
261.221
267.246
272.569
277.149
281.036
284.216
286.545
288.378
289.947
291.111
291.844
292.385
292.786
292.879
292.865
292.883
292.905
292.869
292.788
292.743
292.746
292.774
292.797
292.797
292.792
292.848
293.09
293.66
294.728
295.774
297.426
0.00340497
0.0161607
0.0586436
0.197955
0.594926
1.58329
3.73912
7.87848
14.772
24.6895
37.1967
51.3191
66.1669
81.1064
95.86
110.281
124.357
137.962
151.257
163.964
176.224
188.078
199.277
209.981
220.126
229.613
238.473
246.72
254.278
261.067
267.107
272.431
276.999
280.914
284.143
286.494
288.342
289.951
291.167
291.956
292.541
292.967
293.086
293.105
293.159
293.213
293.195
293.113
293.058
293.048
293.06
293.065
293.047
293.02
293.047
293.269
293.827
294.949
296.023
297.588
0.00339446
0.0161209
0.0585404
0.197735
0.594709
1.5839
3.74339
7.89268
14.8071
24.7595
37.3153
51.4858
66.3751
81.3358
96.1143
110.537
124.652
138.275
151.508
164.22
176.484
188.292
199.459
210.15
220.315
229.826
238.689
246.913
254.448
261.223
267.252
272.574
277.145
281.032
284.215
286.543
288.37
289.937
291.101
291.817
292.34
292.727
292.802
292.767
292.77
292.79
292.752
292.656
292.601
292.6
292.633
292.676
292.712
292.741
292.831
293.129
293.763
295.004
296.187
297.776
0.00338361
0.0160793
0.0584249
0.197426
0.593947
1.58192
3.738
7.87864
14.775
24.6961
37.2056
51.326
66.1685
81.1033
95.8512
110.269
124.345
137.944
151.256
163.965
176.218
188.082
199.28
209.978
220.125
229.616
238.477
246.72
254.275
261.059
267.099
272.417
276.983
280.907
284.141
286.483
288.316
289.922
291.141
291.931
292.521
292.949
293.063
293.073
293.118
293.171
293.148
293.052
292.989
292.98
293.001
293.022
293.033
293.037
293.103
293.384
294.017
295.277
296.481
298.101
0.00337241
0.0160362
0.0583061
0.197133
0.593416
1.58146
3.7393
7.88637
14.7988
24.7505
37.3081
51.482
66.3769
81.3411
96.1271
110.551
124.673
138.295
151.517
164.224
176.488
188.298
199.461
210.15
220.316
229.826
238.686
246.91
254.448
261.225
267.258
272.578
277.141
281.031
284.219
286.545
288.364
289.93
291.095
291.794
292.301
292.676
292.731
292.68
292.671
292.687
292.641
292.532
292.466
292.459
292.487