/*--------------------------------*- C++ -*----------------------------------*\
| =========                 |                                                 |
| \\      /  F ield         | OpenFOAM: The Open Source CFD Toolbox           |
|  \\    /   O peration     | Version:  5.x                                   |
|   \\  /    A nd           | Web:      www.OpenFOAM.org                      |
|    \\/     M anipulation  |                                                 |
\*---------------------------------------------------------------------------*/
/*   Windows 32 and 64 bit porting by blueCAPE: http://www.bluecape.com.pt   *\
|  Based on Windows porting (2.0.x v4) by Symscape: http://www.symscape.com   |
\*---------------------------------------------------------------------------*/
FoamFile
{
    version     2.0;
    format      ascii;
    class       volScalarField;
    location    "0.008";
    object      p;
}
// * * * * * * * * * * * * * * * * * * * * * * * * * * * * * * * * * * * * * //

dimensions      [1 -1 -2 0 0 0 0];

internalField   nonuniform List<scalar> 
10000
(
99998.6
99993.1
99973.8
99909.5
99722.1
99257.6
98257.5
96388.3
93419.4
89417.4
84756
79884.4
75148.3
70680
66527.5
62677.7
59129.2
55852.5
52842.4
50082.5
47548.8
45240.6
43141.2
41237.1
39519.9
37981.4
36617.1
35422.5
34387.9
33501.2
32760.3
32148.1
31652.3
31283.5
31011.8
30808
30662.8
30572.3
30518.1
30478.2
30457.1
30443.2
30429.8
30424
30416.8
30416.3
30415.1
30415.4
30417.4
30413.2
30401.3
30389.3
30365.5
30318.3
30229.2
30186.2
30123.6
30100.6
30049.9
30037.2
99998.6
99993.1
99974
99910.7
99726.1
99268.8
98283.8
96439.9
93504.9
89538.1
84905.2
80052
75325.8
70862.7
66712.7
62863.6
59314.8
56036.8
53024
50259.9
47722.4
45410
43304.1
41393.4
39668.9
38122.5
36748.2
35542.6
34496.9
33599.9
32845.6
32219.5
31719.3
31326.9
31052.4
30840.1
30687.7
30591.9
30530.3
30485.4
30463.2
30447.3
30434.3
30424.8
30419.4
30419.3
30419
30417.8
30413.9
30409.6
30404.1
30394.2
30374.9
30335.6
30251.6
30204.1
30136.3
30115
30082.7
30038.6
99998.6
99993.1
99974.1
99910.9
99726.6
99269.8
98285.8
96443.4
93509.9
89543.7
84911
80057.4
75330.5
70866.6
66716.1
62866.7
59317.2
56038.5
53024.9
50263.5
47724.7
45410.5
43305.7
41394.9
39670.1
38122.7
36748.9
35543.6
34497.9
33598.9
32847
32221.4
31711.1
31329
31043.2
30836.4
30679.1
30577.4
30526.4
30478.8
30458.2
30444.6
30433.7
30421.7
30420.6
30418.5
30417.4
30416.2
30411.3
30408.8
30406.7
30395.9
30374.3
30336.1
30256.5
30214.1
30144.9
30120.3
30096.6
30058.9
99998.6
99993.2
99974.3
99911.9
99730
99279.3
98308.3
96488.1
93584.8
89651
85045
80209.2
75492.5
71034.3
66886.7
63038.2
59489
56210.9
53194.6
50427.5
47885.7
45569.3
43457.8
41541
39809.9
38256
36872.4
35656.3
34600.5
33693.2
32926.2
32290.3
31781.8
31370
31091.7
30870.8
30709.3
30605.7
30544.1
30491
30468.4
30454.2
30442.7
30429.2
30422.2
30420.7
30419.5
30415.7
30412.8
30409.1
30402.7
30394.2
30378.6
30348.2
30277.6
30223.8
30170.1
30126.8
30092.3
30026.5
99998.6
99993.2
99974.4
99912.2
99730.7
99281.1
98311.9
96494.4
93593.6
89661.1
85055.3
80218.9
75501.1
71041.4
66892.8
63044
59493.5
56213.9
53197.1
50433.7
47890.2
45570.4
43460.5
41543.8
39811.7
38256
36873.4
35658.6
34602.6
33692
32929.4
32290.6
31771.3
31372
31080
30862.6
30698.1
30586.5
30532.9
30481.8
30460.2
30449.7
30438.7
30424
30419.6
30418.6
30418
30416.4
30412.3
30405.5
30398
30389.5
30376.3
30350
30289.9
30232.5
30176.5
30117.3
30079.6
30004
99998.6
99993.2
99974.6
99913
99733.6
99289.1
98331.1
96533.1
93659.3
89756.5
85176
80356.7
75649
71195.5
67050.1
63202.3
59652.7
56373.9
53354.4
50584.6
48039.6
45719
43602.6
41680.3
39943
38381.9
36989.9
35764.3
34698.7
33782
33003.4
32358
31838.4
31410.2
31128.3
30895.2
30729.8
30618.3
30557
30500.3
30473.4
30456.9
30446.4
30434.3
30423.7
30422.6
30419.8
30415.9
30410.8
30404.5
30396.7
30388.9
30377.8
30356.3
30306.8
30263
30219.4
30135.7
30090.6
30002.5
99998.6
99993.2
99974.7
99913.4
99734.6
99291.5
98335.9
96541.4
93671.1
89770.2
85189.8
80369.7
75660.7
71205.1
67058.5
63210.2
59659.1
56377.6
53358.8
50593.2
48045.6
45720.7
43606.2
41684
39945.3
38382
36990.9
35767.1
34701.3
33781.1
33006.9
32357.3
31831.4
31412.6
31116.4
30890
30719.1
30598.2
30540
30487.8
30463.9
30450.5
30440
30424.2
30417.5
30417.4
30416.8
30414.5
30408.5
30401.5
30394.9
30388.3
30376.5
30353.2
30300
30262.7
30223.2
30142.8
30094.1
30016
99998.6
99993.3
99974.9
99914.1
99737
99298.3
98352.4
96575.1
93728.9
89855.1
85298.7
80495.2
75796
71346.9
67203.6
63356.3
59806.7
56527.2
53505.1
50732.4
48184.6
45860.2
43738.6
41811
40068.1
38500.4
37101.1
35866.6
34791.9
33866
33077
32422.8
31891.6
31450.1
31166.2
30918
30748.4
30630.8
30566.9
30503.9
30476.3
30459.6
30450
30438.4
30425.8
30424.2
30418.7
30413.5
30408.1
30403.5
30398.1
30392.1
30379.5
30355.1
30297.6
30248
30209.7
30199.2
30133.4
30029
99998.6
99993.3
99975
99914.5
99738.1
99301.1
98358
96584.9
93743
89871.6
85315.3
80510.5
75809.9
71358.4
67213.7
63366
59814.2
56531.7
53511.1
50742.8
48191.7
45862
43743.1
41815.6
40071
38501.1
37102
35869.5
34794.9
33865.4
33080
32421.7
31887.9
31450.8
31153.2
30913.8
30740.4
30611.3
30550.1
30496.7
30468.8
30450.1
30439.6
30423
30415.8
30416.2
30415.4
30413
30407.5
30401.6
30395.5
30387.9
30374.5
30349.4
30293.8
30236.6
30196.7
30185.8
30128.7
30037.8
99998.6
99993.3
99975.1
99915.1
99740.2
99307
98372.4
96614.4
93793.9
89947.2
85413.5
80625
75933.9
71489.1
67347.8
63501
59951.3
56670.4
53646.4
50870.3
48320.9
45993
43866.4
41934.2
40185.9
38612
37205.7
35963.1
34879.8
33945.4
33147.4
32485.5
31943.6
31491.1
31198.6
30941.7
30767.1
30646.9
30576.8
30509.4
30479.7
30464.3
30454.5
30441.4
30427.7
30425.7
30421.1
30415.3
30409.3
30403.6
30395.1
30386.1
30373.6
30350
30300.7
30246.2
30198.1
30173.5
30144.2
30063.5
99998.6
99993.4
99975.2
99915.5
99741.3
99309.9
98378.4
96625.2
93809.6
89965.8
85432.3
80642.1
75949.5
71502
67359.1
63512.1
59959.8
56676.2
53654
50883.1
48328.7
45994.7
43871.9
41939.5
40189.2
38613.1
37206.6
35966.3
34883.2
33945.8
33149.8
32482.6
31941.5
31488.5
31187.7
30938.5
30760.7
30621.2
30560.3
30503.7
30471
30451
30438.6
30424.7
30417.9
30418.2
30417.6
30415.5
30410.1
30401.5
30392
30382.3
30369.4
30346.4
30299.1
30231.8
30180.8
30153.9
30142.2
30089.3
99998.6
99993.4
99975.4
99916.1
99743.1
99315.1
98390.9
96651
93854.6
90033.4
85520.9
80746.7
76063.4
71622.5
67483.2
63636.9
60087.2
56805.3
53779.4
51000.3
48449.7
46117.8
43986.3
42049.7
40296.4
38716.9
37304.3
36054.1
34962.7
34020.4
33214.5
32544.8
31993.6
31533.3
31227.4
30965.2
30786.3
30660.4
30582.9
30518.3
30482.3
30468.1
30457.8
30442.7
30427.7
30426.9
30424.2
30419.3
30411.6
30404.4
30394.8
30384.8
30374
30352.9
30306.5
30240.1
30183.3
30169.9
30131.6
30099.1
99998.6
99993.4
99975.5
99916.5
99744.3
99318.1
98397.3
96662.4
93871.4
90053.6
85541.4
80765.2
76080.2
71636.4
67495.4
63648.9
60096.3
56811.7
53788.6
51014.6
48457.4
46119.3
43992.7
42055.9
40300.4
38718.5
37305.7
36057.7
34966.7
34022.3
33216.2
32541
31992.4
31525.7
31218.4
30963.8
30780.1
30636.3
30571.2
30509.3
30472.3
30452
30439.7
30429.1
30419.8
30420
30419.5
30417.5
30412
30403.4
30395
30385.2
30375.2
30356.8
30316.2
30230
30178.7
30145.6
30107.7
30078.4
99998.6
99993.4
99975.6
99917
99745.9
99322.6
98408.3
96685.3
93911.4
90114
85621.4
80860.7
76184.9
71747.8
67610.3
63764.4
60214.8
56931.2
53904.4
51121.8
48571
46235.1
44099
42158.2
40400.2
38815.5
37396.7
36139.8
35041
34091.3
33277.9
32601.2
32041.6
31576.3
31255.5
30989.5
30803.4
30671.9
30588.7
30525.9
30483.3
30471.1
30460
30444.8
30428.1
30427.2
30425.5
30420.6
30412.8
30406.6
30399.5
30389.8
30380.6
30362.2
30325.5
30245.1
30194
30115.4
30090.5
30057.4
99998.6
99993.5
99975.7
99917.4
99747.1
99325.7
98414.7
96697
93928.8
90135.2
85643.2
80880.2
76202.5
71762.2
67623
63777.1
60224.3
56938.9
53915.1
51137.6
48578.3
46236.5
44106.3
42165.8
40405
38817.7
37398.9
36143.9
35045.5
34094.7
33279.5
32595.7
32040.8
31562.1
31248.6
30988.7
30799.4
30648.9
30579.4
30514.6
30473.6
30453.9
30441.1
30432.7
30420.1
30420.3
30419.8
30418
30413.2
30405.1
30399.5
30390.3
30380.1
30360
30320
30229.9
30184.3
30103.2
30072.1
30035.8
99998.6
99993.5
99975.8
99917.8
99748.6
99329.7
98424.5
96717.3
93964.5
90189.4
85715.6
80967.5
76298.8
71865.5
67729.6
63884.2
60334.7
57049.2
54021.8
51236.1
48685.3
46345.4
44205.2
42260.5
40498.6
38908.8
37484.2
36220.8
35115
34158.6
33337.7
32655
32088.2
31617.7
31282.9
31012.6
30819.9
30686.5
30597.9
30534.9
30485.1
30471.5
30460.8
30445.7
30427.1
30426.4
30424.7
30421
30413.9
30407.6
30402.8
30393.9
30384.3
30365.2
30325.6
30234.4
30181.2
30111.1
30069.1
30029.9
99998.6
99993.5
99975.9
99918.2
99749.7
99332.7
98430.8
96729
93982.1
90211.1
85738.1
80987.7
76317
71880
67742.5
63897.3
60344.5
57058.3
54033.9
51252.9
48692
46346.9
44213.2
42268.4
40503.3
38911.2
37486.9
36225.4
35119.9
34162.5
33339.3
32649.8
32086.3
31600.9
31278.1
31012
30818
30660.4
30587.4
30519.6
30475.8
30456.9
30440.5
30434.5
30421.1
30420.7
30419.8
30418
30413.3
30405.6
30400.8
30392
30382.6
30363.9
30325.2
30237.4
30167.9
30116.5
30063.8
30019.3
99998.6
99993.5
99976
99918.6
99751
99336.3
98439.6
96747.2
94014.1
90259.9
85803.8
81067.6
76405.7
71975.8
67841.6
63996.6
60447.1
57160.1
54132.2
51343.6
48792.8
46448.9
44304.9
42357
40591
38996.5
37566.5
36297.2
35185
34222.3
33394.5
32704.8
32132.3
31651.8
31309
31033.7
30835.6
30699.5
30604.4
30540.2
30486.5
30472.1
30461
30446.4
30427.6
30426.6
30424.5
30420.3
30412.6
30406.6
30401.1
30392.3
30383
30366.3
30333
30259.3
30179
30128.5
30066.9
30022.2
99998.7
99993.5
99976.1
99919
99752.1
99339.2
98445.8
96758.7
94031.7
90281.8
85826.7
81088.2
76424.1
71990.5
67854.6
64009.9
60457.1
57169.8
54145.3
51360.7
48798.6
46450.5
44313.4
42365.2
40595.9
38999.3
37569.7
36302.2
35190.2
34226.6
33395.8
32701.5
32128.5
31643
31307.3
31033.3
30834.9
30674.5
30595.5
30523.1
30479.4
30459.9
30440.1
30435
30424.5
30422.5
30420.8
30417.6
30410.9
30403.9
30397.8
30388.9
30378.5
30360.8
30331.5
30268.5
30180.7
30121.8
30061.8
30027.3
99998.7
99993.6
99976.2
99919.3
99753.3
99342.5
98453.7
96775.1
94060.4
90325.9
85886.3
81161.4
76505.9
72079.2
67946.6
64102
60552.7
57264.1
54236.1
51444.3
48893.7
46546.1
44398.4
42447.1
40677.5
39078.9
37644.4
36369.5
35251.2
34282.5
33448.4
32751.6
32174.5
31684
31334.6
31053.6
30850.5
30711.9
30610.3
30545.9
30489.4
30472.6
30460.5
30446.4
30429.2
30427.1
30424.6
30419.2
30410.7
30404.1
30397.7
30389.2
30378.8
30361.3
30336.3
30282.9
30189.6
30114.8
30063.9
30042.8
99998.7
99993.6
99976.3
99919.7
99754.3
99345.2
98459.7
96786.3
94077.7
90347.7
85909.3
81182.1
76524.4
72093.9
67959.6
64115.3
60562.7
57274.2
54249.8
51461.6
48898.4
46547.8
44407.4
42455.8
40683
39082.2
37647.8
36374.8
35256.5
34287.2
33449.5
32750.3
32166.1
31678.6
31333.7
31053.2
30850.1
30687.2
30603.1
30525.5
30484.1
30462.2
30440.9
30436.4
30427.6
30424.4
30421.6
30416.7
30408.9
30402.1
30395.6
30387.2
30375.7
30357.2
30331.9
30279.7
30192.5
30092.3
30059.2
30057.1
99998.7
99993.6
99976.4
99920
99755.4
99348.2
98466.9
96801.2
94103.8
90387.7
85963.6
81249.3
76599.8
72176.2
68045.1
64200.9
60651.8
57361.4
54333.7
51538.8
48988.5
46637.4
44486.4
42532.4
40758.9
39156.7
37717.9
36437.9
35313.6
34339.4
33499.4
32796.1
32214.6
31716.6
31359.9
31072.4
30865.1
30724.1
30615.4
30551.1
30493.5
30473.3
30458.5
30445.6
30430.8
30428.3
30424.2
30417.4
30409.7
30402.7
30396
30387.4
30375.9
30357.7
30333.4
30285.9
30200.6
30073.1
30065.8
30074.1
99998.7
99993.6
99976.5
99920.4
99756.4
99350.8
98472.6
96812
94120.6
90409.1
85986.4
81269.9
76618.2
72190.8
68058.1
64214.1
60661.8
57371.9
54347.9
51555.9
48992.3
46639.4
44495.7
42541.1
40764.9
39160.2
37721.5
36443.2
35319.1
34344.3
33500.3
32795.3
32203.2
31713.4
31359.9
31071.8
30864.6
30700.9
30610.7
30528.4
30489.6
30464.8
30442.7
30438.4
30430
30425.8
30422
30415.5
30408.9
30402
30394.5
30384.7
30372.4
30354.6
30328.4
30277.2
30198.9
30057.8
30063
30074.8
99998.7
99993.6
99976.6
99920.7
99757.4
99353.6
98479.2
96825.5
94144.3
90445.5
86036
81331.7
76687.9
72267.1
68137.5
64293.6
60744.7
57452.7
54425.6
51627.3
49077.4
46722.9
44569.2
42612.8
40835.9
39230.2
37787.2
36502.3
35372.5
34393
33547.3
32838.1
32252.7
31748.5
31384.3
31090.4
30879.6
30735.6
30622.3
30555.5
30498.4
30474.6
30457
30445.1
30433
30428.3
30424.6
30416.7
30409.9
30402.9
30394.8
30384.2
30371.3
30354.3
30329.3
30280.9
30207.4
30061.8
30064.8
30067.8
99998.7
99993.7
99976.6
99921
99758.4
99356.1
98484.6
96835.8
94160.5
90466.2
86058.4
81352
76706
72281.6
68150.3
64306.7
60754.7
57463.5
54440
51644.2
49081.2
46725.4
44578.6
42621.3
40841.7
39233.6
37790.8
36507.6
35378
34398.1
33548.6
32837.4
32237.2
31745.7
31383.6
31089.8
30878.6
30714.9
30618.6
30533.3
30496
30467.5
30444.4
30440.2
30432
30427
30421.9
30415.9
30409.8
30402.7
30394
30382.9
30368.7
30350.5
30324.8
30279
30208.6
30063.6
30055.6
30044.7
99998.7
99993.7
99976.7
99921.3
99759.3
99358.6
98490.7
96848.2
94182.2
90499.6
86103.9
81408.9
76770.5
72352.4
68224.2
64380.4
60831.9
57538.1
54511.9
51710.4
49160.2
46803.2
44646.8
42688.1
40908.5
39299.2
37852.4
36562.9
35428.1
34443.7
33592.8
32877.8
32286.2
31777.9
31407.2
31107.4
30893
30747.4
30632
30559.1
30503
30476.4
30456
30445.6
30434.5
30429.8
30423.4
30416.4
30410.7
30403.7
30394.9
30383.9
30368.7
30349.5
30327
30286.8
30218.4
30076.2
30044.2
30022.5
99998.7
99993.7
99976.8
99921.6
99760.2
99360.9
98495.8
96858
94197.6
90519.5
86125.5
81428.7
76788.2
72366.6
68236.7
64393.5
60841.8
57549.1
54526.2
51727
49165
46806.2
44656.4
42696.4
40914.1
39302.5
37856
36568.2
35433.6
34448.6
33593.8
32877.4
32272.2
31777.3
31407
31107.4
30891.2
30727.7
30626.6
30537.7
30500.8
30470
30446.9
30442.4
30433.5
30428.7
30421
30415.4
30410.9
30404
30395
30384.3
30368
30347.3
30327
30290.4
30223.7
30073.9
30027.6
30007.7
99998.7
99993.7
99976.9
99921.8
99761
99363.3
98501.4
96869.5
94217.6
90550.2
86167.4
81481.2
76847.9
72432.3
68305.4
64461.7
60913.7
57618.8
54592.9
51788.6
49237.8
46878.6
44719.8
42758.7
40976.2
39364.2
37913.7
36620.1
35480.6
34491.3
33635.9
32915.6
32316.8
31806.1
31429.1
31123.8
30907.1
30759
30639.8
30563.2
30507.2
30478.4
30455.6
30446.5
30435.5
30430.7
30421.6
30415.8
30411.5
30405.2
30396.3
30386.1
30369.6
30348.6
30330.3
30294.7
30231.4
30082.4
30019.8
30005.7
99998.7
99993.7
99976.9
99922.1
99761.8
99365.4
98506.2
96878.7
94232.2
90569.2
86188.2
81500.4
76865.1
72446.2
68317.7
64474.8
60923.5
57629.7
54606.9
51804.7
49243.4
46882
44729.3
42766.9
40981.9
39367.4
37917.4
36625.3
35486
34496.1
33636.5
32915.5
32306.2
31806.3
31429.2
31124
30904
30739.9
30633.7
30540.9
30504.8
30472.8
30449.1
30444.3
30434.7
30429.4
30419.7
30414.7
30411.2
30405.9
30396.8
30386.8
30370.6
30349.4
30330.6
30295.4
30230.2
30088.6
30015.5
30005.1
99998.7
99993.7
99977
99922.4
99762.7
99367.6
98511.4
96889.3
94250.7
90597.5
86226.9
81549
76920.4
72507.3
68381.5
64538.1
60990.4
57694.8
54668.9
51862
49310.7
46949.7
44788.3
42824.9
41039.7
39425
37971.3
36673.9
35530
34536.2
33676.4
32951.4
32345.8
31833
31449.9
31139.4
30920.1
30768.8
30644.5
30566.7
30510.9
30480.4
30455.5
30447.4
30436.6
30430.8
30419.9
30414.7
30411.3
30407.2
30398
30387.8
30372.5
30351.9
30332.6
30298.6
30233.9
30103.6
30016.6
30001.1
99998.7
99993.8
99977.1
99922.6
99763.4
99369.7
98515.9
96897.9
94264.5
90615.6
86246.8
81567.5
76937.1
72520.8
68393.6
64550.9
61000.1
57705.3
54682.6
51877.6
49316.9
46953.5
44797.8
42833.1
41045.4
39428.3
37975.1
36678.9
35535.3
34540.7
33676.9
32951.7
32339
31833.3
31450.2
31139.8
30916.2
30751.5
30640.3
30545.3
30508.8
30475.8
30450.9
30445.9
30435.8
30429.6
30418.3
30413.7
30410.9
30407.2
30398.8
30387.9
30373.5
30354.5
30335.2
30300.3
30237.2
30112.3
30017.3
29991.6
99998.7
99993.8
99977.1
99922.9
99764.2
99371.7
98520.7
96907.8
94281.7
90641.8
86282.6
81612.4
76988.4
72577.5
68452.9
64610.2
61062.3
57766
54740.2
51931.1
49378.6
47016.1
44852.7
42887.2
41099.6
39482.2
38025.4
36724.4
35576.6
34578.5
33714.6
32985.3
32373.1
31858.4
31469.6
31154.1
30932.6
30777.9
30650.3
30569.4
30514.5
30482.3
30455.5
30448
30437.6
30430.8
30418.6
30413.9
30411.2
30407.5
30399.6
30388.5
30374.7
30357.8
30339.6
30305.7
30245.2
30122.9
30020.3
29980.4
99998.7
99993.8
99977.2
99923.1
99764.9
99373.6
98524.9
96915.9
94294.6
90658.8
86301.5
81630.2
77004.5
72590.6
68464.7
64622.2
61071.8
57776
54753.4
51946
49386
47020.4
44862
42895.1
41105.3
39485.6
38029.3
36729.4
35581.7
34582.9
33715.2
32985.5
32369
31858.7
31470.1
31154.8
30928.3
30763.2
30647.4
30550.8
30512.9
30478.8
30452.3
30447
30436.8
30429.9
30417.7
30413.3
30410.6
30407
30399.9
30389.5
30375.8
30360.9
30342.9
30309.8
30247.6
30120.3
30021.8
29968.9
99998.7
99993.8
99977.2
99923.3
99765.6
99375.5
98529.4
96925.1
94310.7
90683.3
86334.8
81671.9
77052.1
72643.4
68519.9
64677.9
61129.8
57832.3
54807.1
51995.8
49442
47078.2
44913.2
42945.8
41155.9
39535.8
38076.2
36771.9
35620.4
34618.4
33750.6
33017.1
32398.7
31882.3
31488.5
31168.1
30944.3
30785.3
30657.2
30573.1
30517.9
30484.4
30455.7
30448.8
30438.1
30430.7
30418.5
30413.7
30410.5
30406.5
30400.4
30391.7
30378.3
30363.5
30345.6
30313.2
30250.2
30118.5
30024.2
29959.2
99998.7
99993.8
99977.3
99923.5
99766.2
99377.3
98533.3
96932.6
94322.7
90699.2
86352.6
81688.8
77067.5
72656
68531.3
64689
61139
57842
54819.7
52010.1
49450.6
47082.9
44922.2
42953.5
41161.4
39539.3
38080.1
36776.8
35625.4
34622.6
33751.3
33017.4
32397.2
31882.9
31489.3
31168.9
30940.2
30774.8
30655.2
30556.7
30516.8
30481.3
30453.5
30448.1
30437.4
30429.9
30418.3
30413.3
30409.6
30405.5
30400.3
30393.9
30381.7
30365
30346.4
30313.5
30248.1
30109.5
30024
29950.3
99998.7
99993.8
99977.4
99923.7
99766.9
99379.1
98537.5
96941.2
94337.7
90722.1
86383.7
81727.6
77111.8
72705.1
68582.7
64741.2
61193
57894.6
54869.9
52056.6
49501.9
47136.7
44969.9
43000.8
41208.7
39586.1
38123.8
36816.6
35661.6
34655.9
33784.5
33047.1
32423
31905.3
31506.8
31181.2
30955.6
30792
30664.6
30577.1
30521.3
30486.4
30456.2
30449.7
30438.5
30430.6
30419.2
30413.6
30409.4
30405.1
30400.7
30395
30386.2
30366.2
30347.4
30314.2
30247.6
30104.9
30024.4
29943.7
99998.7
99993.8
99977.4
99923.9
99767.5
99380.7
98541.2
96948.2
94348.8
90736.9
86400.3
81743.6
77126.5
72717.2
68593.7
64751.7
61202
57904
54881.9
52070.1
49510.9
47141.6
44978.6
43008.1
41214
39589.7
38127.8
36821.3
35666.5
34659.9
33785.3
33047.7
32422.3
31906.1
31507.8
31182
30951.5
30785.5
30663
30562.4
30520.4
30484
30454.7
30449.2
30438.1
30430
30419
30413.5
30408.8
30404.6
30400.8
30395.4
30388.6
30367.3
30347.8
30313.8
30245.6
30098.8
30023.6
29937.2
99998.7
99993.9
99977.5
99924.1
99768.1
99382.4
98545.2
96956.3
94363
90758.4
86429.4
81779.8
77167.8
72762.9
68641.5
64800.3
61252.3
57952.9
54928.7
52113.7
49558.3
47191.5
45023.2
43052.3
41258.2
39633.3
38168.6
36858.5
35700.4
34691.2
33816.4
33075.4
32446.5
31927.8
31524.6
31193.5
30966.8
30798.8
30671.6
30581
30524.5
30488.5
30457
30450.6
30439.1
30430.8
30419.6
30414
30408.9
30404.7
30401.1
30395.8
30389.8
30368.2
30348.4
30314.1
30246.2
30099.5
30024.2
29930.5
99998.7
99993.9
99977.5
99924.3
99768.7
99383.8
98548.5
96962.7
94373.3
90772.1
86444.9
81794.9
77181.7
72774.6
68652.1
64810.3
61261
57962.2
54940.2
52126.4
49567.4
47196.4
45031.6
43059.3
41263.3
39636.9
38172.5
36863.1
35705.1
34695.1
33817.4
33076.3
32446.2
31928.5
31525.7
31194.3
30962.5
30795
30670.2
30567.8
30523.9
30486.9
30456
30450.3
30438.8
30430.4
30419.4
30414.1
30408.9
30404.7
30401.1
30395.7
30389.7
30368.2
30348.5
30314
30246.3
30100.3
30022.8
29921.4
99998.7
99993.9
99977.6
99924.5
99769.3
99385.5
98552.3
96970.4
94386.7
90792.4
86472.3
81828.7
77220.2
72817.1
68696.6
64855.5
61307.9
58007.9
54983.9
52167.2
49611.4
47243.2
45073.2
43100.6
41304.5
39677.5
38210.5
36897.8
35736.9
34724.4
33846.5
33102.1
32469.7
31949.2
31541.6
31205
30978
30805.7
30678.1
30584.4
30527.6
30490.9
30457.9
30451.5
30439.9
30431.1
30419.9
30414.6
30409.3
30405
30401.2
30395.7
30389.4
30367.9
30348.5
30314.7
30248.4
30105.5
30021.2
29911.6
99998.7
99993.9
99977.6
99924.7
99769.8
99386.8
98555.3
96976.3
94396.1
90805
86486.7
81842.9
77233.4
72828.3
68706.8
64865.3
61316.3
58016.6
54994.8
52179.2
49620.3
47248.1
45081.2
43107.2
41309.5
39681.2
38214.5
36902.3
35741.4
34728.2
33847.6
33103.3
32470
31949.5
31542.9
31205.7
30973.6
30803.3
30676.9
30572.7
30527
30489.6
30457
30451.2
30439.9
30430.9
30419.6
30414.9
30409.4
30405
30401
30395.5
30388.7
30367.3
30348.3
30314.8
30249.4
30108.5
30017.8
29901.5
99998.7
99993.9
99977.7
99924.9
99770.4
99388.3
98558.9
96983.6
94408.8
90824.2
86512.3
81874.5
77269.3
72867.9
68748.3
64907.1
61360
58059.6
55035.6
52217.4
49661.2
47291.6
45120.2
43145.8
41347.9
39718.9
38249.9
36934.8
35771.2
34755.7
33874.8
33127.5
32492.2
31970.5
31558
31215.7
30988.4
30812.2
30684.1
30586.5
30530.5
30493.5
30458.8
30452.4
30441
30431.7
30420
30415.5
30409.9
30405.1
30400.9
30395.4
30388.2
30366.9
30348.3
30315.3
30250.9
30110.9
30014.6
29892.8
99998.7
99993.9
99977.7
99925
99770.8
99389.6
98561.7
96988.9
94417.4
90835.7
86525.7
81887.8
77281.8
72878.6
68758.1
64916.7
61368.1
58067.8
55045.9
52228.7
49669.8
47296.4
45127.7
43152.2
41352.7
39722.7
38253.9
36939.1
35775.5
34759.3
33876
33128.9
32492.3
31969.1
31559.4
31216.5
30984.5
30810.5
30683
30578.1
30529.9
30492.3
30458
30452.2
30441.1
30431.7
30419.8
30415.8
30410
30405.1
30400.6
30395
30387.4
30366.6
30348.2
30315.6
30251.7
30113.3
30009.7
29884.6
99998.7
99993.9
99977.7
99925.2
99771.4
99391
98565.1
96995.9
94429.5
90853.9
86549.9
81917.4
77315.3
72915.5
68796.7
64955.5
61408.8
58108
55084.1
52264.5
49707.9
47337.2
45164.2
43188.2
41388.6
39757.8
38286.9
36969.4
35803.4
34785
33901.4
33151.5
32512.8
31990.3
31573.5
31225.9
30998.2
30818.3
30689.5
30587.6
30533.1
30496.3
30459.8
30453.3
30442.1
30432.6
30420.2
30416.4
30410.4
30405.3
30400.4
30394.7
30386.9
30366.5
30348.4
30316.3
30253.5
30116
30005.4
29877.6
99998.7
99993.9
99977.8
99925.3
99771.8
99392.1
98567.6
97000.7
94437.3
90864.5
86562.1
81929.8
77327.1
72925.7
68806.1
64964.9
61416.6
58115.8
55093.8
52275.1
49716.1
47342
45171.3
43194.3
41393.2
39761.5
38290.8
36973.6
35807.6
34788.5
33902.7
33153
32512.8
31987.2
31574.9
31226.7
30995.5
30816.8
30688.5
30582.7
30532.5
30494.7
30459.1
30453.2
30442.3
30432.7
30420.1
30416.6
30410.4
30405.3
30400.1
30394.2
30386.1
30366.3
30348.3
30316.5
30253.9
30116.5
29999
29870.2
99998.7
99993.9
99977.8
99925.5
99772.3
99393.6
98570.9
97007.4
94448.9
90881.7
86585
81957.5
77358.4
72960.1
68842.1
65001
61454.6
58153.1
55129.6
52308.7
49751.6
47379.8
45205.6
43228.1
41426.8
39794.3
38321.6
37002
35833.7
34812.6
33926.5
33174.1
32532
32008.4
31588.2
31235.8
31007.5
30823.9
30694.4
30588.4
30535.5
30498.8
30461
30454.2
30443.2
30433.5
30420.6
30417.1
30410.6
30405.6
30400.1
30394
30385.7
30366.1
30348.3
30317.1
30255.5
30119.6
29994.3
29863.6
99998.7
99993.9
99977.9
99925.6
99772.7
99394.5
98573.1
97011.7
94455.9
90891.3
86596.3
81969.1
77369.5
72969.8
68851.1
65010.1
61462.1
58160.5
55138.7
52318.6
49759.3
47384.5
45212.3
43233.8
41431.2
39798
38325.4
37006
35837.7
34815.9
33927.9
33175.7
32531.8
32005.3
31589.7
31236.7
31006.1
30822.7
30693.7
30585.2
30534.9
30497.2
30460.3
30454.2
30443.3
30433.6
30420.7
30417.2
30410.6
30405.6
30400
30393.7
30384.9
30365.5
30347.8
30316.9
30255.7
30120.6
29987.8
29856.7
99998.7
99993.9
99977.9
99925.8
99773.2
99395.9
98576.3
97018.2
94467
90907.8
86617.8
81995.1
77398.8
73001.8
68884.7
65043.8
61497.5
58195.6
55172.1
52350.1
49792.4
47420
45244.4
43265.5
41462.7
39828.6
38354.1
37032.5
35862.1
34838.4
33950.1
33195.3
32549.6
32025.4
31602.2
31245.3
31015.8
30829.4
30699
30589.4
30537.9
30501.2
30462.2
30455.2
30444.2
30434.4
30421.3
30417.6
30410.9
30405.8
30400.3
30393.7
30384.5
30365
30347.7
30317.4
30257.5
30124.2
29984.3
29850.9
99998.7
99994
99977.9
99925.9
99773.5
99396.8
98578.3
97022
94473.2
90916.4
86628.2
82005.9
77409.3
73011.1
68893.2
65052.4
61504.7
58202.6
55180.8
52359.3
49799.7
47424.5
45250.6
43270.9
41466.9
39832.1
38357.8
37036.4
35865.9
34841.6
33951.6
33196.9
32549.7
32023.5
31603.9
31246.1
31015.5
30828.8
30698.5
30587.2
30537.4
30499.6
30461.6
30455.1
30444.4
30434.5
30421.4
30417.5
30411
30405.7
30400.3
30393.6
30383.3
30364.4
30346.9
30316.9
30257.5
30126.4
29978.1
29845.1
99998.7
99994
99978
99926
99774
99398.1
98581.4
97028.3
94483.9
90932.1
86648.6
82030.3
77436.6
73041
68924.5
65083.9
61537.7
58235.1
55212.1
52389
49830.6
47457.3
45280.8
43300.6
41496.4
39860.8
38384.7
37061.2
35888.8
34862.7
33972.2
33215.2
32566.2
32041.6
31615.5
31254.4
31023.4
30835.1
30703.3
30591.7
30540.3
30503.3
30463.5
30456.1
30445.2
30435.2
30422.1
30417.8
30411.6
30406.1
30400.6
30394
30382.5
30364.4
30346.8
30317.6
30259.9
30130.8
29976.6
29840
99998.7
99994
99978
99926.3
99774.8
99400.2
98586.1
97037.5
94499.2
90953.5
86674.6
82057.9
77463.6
73065.2
68947
65106.7
61556.7
58253.2
55234.4
52412.4
49849.5
47469.3
45296.8
43314.4
41507.3
39870.1
38394.3
37071.2
35898.6
34870.9
33976.7
33219.7
32566.6
32038.5
31620.1
31256.6
31023.8
30834.7
30702.5
30587.2
30539.3
30498.5
30461.9
30455.9
30445.3
30435.2
30421.9
30416.6
30411.4
30405.6
30399.8
30393.2
30379.1
30362.7
30344.6
30316.4
30260.3
30142.2
29958.5
29828.5
99998.7
99994
99978
99926.1
99774.1
99397.8
98580
97024.6
94476.5
90919.8
86631.9
82011.1
77417.2
73022.6
68907.6
65067.2
61523.5
58221.5
55197.4
52372.6
49817.1
47448.2
45270.5
43291.6
41489
39854.1
38377.7
37053.8
35881.7
34856.2
33967.9
33211.6
32563.4
32039.7
31613.8
31250.2
31021.8
30834.8
30702.3
30601.5
30543
30506
30465.3
30457.6
30447.8
30436.9
30422.3
30415.8
30412.8
30409.1
30400.8
30390.4
30377.9
30361.7
30343
30311.8
30248.5
30135.2
29932.1
29802.3
99998.7
99994
99978.1
99926.4
99774.9
99400.2
98585.7
97036.6
94497.7
90951.9
86673.8
82058.8
77465.7
73068.2
68950.1
65109.4
61559.9
58254
55237.8
52412
49851.4
47471.4
45297.2
43315.3
41508.4
39871.4
38395.4
37072.1
35899.7
34871
33979.3
33221.7
32568
32045.9
31622.8
31255.6
31024.5
30838.9
30704.6
30586.7
30540.5
30500.1
30462.6
30457.2
30449.8
30437.6
30422.3
30414.1
30411.9
30408.4
30400.4
30387.6
30374.7
30359.5
30340.7
30310
30249.8
30143.7
29929.6
29793.7
99998.7
99994
99978.1
99926.3
99774.6
99398.7
98581.5
97026.5
94478.4
90920.6
86631.2
82008.6
77413.9
73018.5
68903.7
65062.1
61520.1
58217.9
55195.6
52370.2
49815.5
47446
45269.6
43290.5
41487.6
39852.6
38376.2
37052.1
35880.3
34854.2
33966.2
33210.4
32562
32039
31614
31247.8
31018.9
30834.3
30700.7
30594.2
30542.6
30506.4
30464.2
30457.9
30450
30437.3
30421.9
30412.7
30411.3
30407.4
30400.1
30385.2
30372.4
30358.5
30338.1
30307.4
30248.6
30130.1
29914.4
29778
99998.7
99994
99978.1
99926.5
99775.1
99400.3
98585.5
97035.8
94496.1
90949.7
86672.1
82058.8
77467.3
73071.1
68953.4
65112.8
61563.6
58255.7
55241.7
52412
49853.2
47473.2
45297.8
43316.3
41509.8
39873.1
38396.9
37073.4
35900.7
34871.4
33981.5
33223.2
32568.7
32048.5
31624
31255.3
31023.8
30841.9
30705.8
30592.5
30543
30504.3
30463.1
30458
30451.5
30438
30422.2
30411.2
30409.6
30406.2
30398.8
30383.3
30369.4
30356.2
30334.6
30304.5
30243.4
30120
29897.7
29760.4
99998.7
99994
99978.2
99926.5
99775.1
99399.6
98582.9
97028.4
94480.6
90921.9
86631
82006.5
77410.8
73014.3
68899.5
65057.6
61516.3
58214.1
55192.9
52367.6
49813.9
47444
45268.4
43289.3
41486.2
39850.9
38374.4
37050.2
35878.5
34851.8
33964.1
33208.1
32558.7
32035.4
31611.1
31244.5
31013.9
30833.3
30699.2
30586.3
30540.3
30505
30461.8
30455.6
30448.9
30436.2
30419.7
30407.8
30406.5
30403.7
30397.2
30383.9
30367.3
30355.3
30334.2
30302.3
30237.6
30108.9
29865.8
29729.9
99998.7
99994.1
99978.2
99926.7
99775.5
99400.6
98585.6
97035.2
94494.6
90947.1
86669.7
82057.9
77468.4
73073.8
68956.6
65116.2
61567.7
58256.9
55245.9
52412.2
49855.3
47474.7
45298.5
43317.6
41511.7
39875.4
38399.1
37075.5
35902.2
34872.5
33983.8
33224.8
32571
32051.9
31624.9
31256.6
31023.2
30844.5
30707.9
30595.6
30544.7
30507
30463.7
30457.5
30450.5
30438.9
30421.4
30408.3
30407
30403.9
30397.5
30385.3
30367.6
30354.4
30332.2
30298.9
30233.7
30102.6
29842.4
29706.4
99998.7
99994.1
99978.3
99926.7
99775.6
99400.4
98584.3
97030.3
94482.9
90923.6
86631.5
82005.1
77408.1
73010.1
68895.2
65052.1
61511.7
58210.1
55189.9
52364.8
49812
47442
45267.2
43288
41484.6
39849.2
38372.6
37048.4
35876.6
34849.1
33961.5
33205.5
32554.1
32030.9
31606.4
31242.6
31008
30831.9
30698.2
30582.3
30537.6
30502.9
30459.7
30453.9
30446.8
30437.1
30417.7
30404.2
30403.2
30400.9
30395.6
30385.2
30366.5
30350.3
30328.7
30293.9
30226.3
30094.5
29827.9
29691.9
99998.8
99994.1
99978.3
99926.9
99775.9
99401.1
98586
97034.8
94493.3
90944.2
86666.4
82055.8
77468.5
73076.1
68959.8
65120.4
61572.4
58259
55250.4
52412.7
49857.3
47476.4
45299.2
43318.6
41513.4
39877.6
38401.6
37078.2
35904.6
34874.8
33987.3
33227.8
32574.7
32056.6
31628.2
31260.2
31024.5
30849
30710.6
30597.3
30545.9
30508.5
30465.1
30459.2
30452
30442.2
30422.4
30407.9
30406.6
30403.8
30397.8
30385.5
30368
30349.5
30327.4
30292
30223.6
30091.4
29824
29683.4
99998.8
99994.1
99978.3
99927
99776.1
99401.3
98585.7
97032.2
94485.3
90925.6
86632.4
82004.4
77405.9
73006.1
68890.7
65045.5
61506.4
58204.8
55186.3
52361.9
49810.4
47439.9
45265.8
43286.7
41483.2
39847.7
38371
37046.8
35875
34846.9
33960.2
33203.3
32551.5
32029.5
31603.2
31241.8
31004.1
30830.7
30697.3
30580.1
30535.6
30500.2
30458.3
30453.9
30447.3
30436.4
30417.1
30401.9
30400.7
30398.2
30393
30382
30365.1
30345.3
30321.6
30285.8
30215.6
30078.3
29806.1
29666.6
99998.8
99994.1
99978.4
99927.1
99776.3
99401.7
98586.7
97034.8
94492.2
90941.2
86662.2
82052.4
77467.4
73077.5
68962.6
65125.1
61577.6
58261.9
55255.4
52413.5
49859.1
47478
45300
43319.5
41515
39879.8
38404.2
37081.4
35907.6
34878.1
33991.6
33231.9
32580.2
32062.6
31633.6
31264.7
31028.6
30853.9
30713.5
30600.1
30548.9
30510.6
30467.6
30462.3
30456
30445.1
30423.2
30409
30407.5
30404.2
30397
30383.8
30368.6
30348.2
30321.9
30286.1
30215.9
30079
29806.2
29662.2
99998.8
99994.1
99978.4
99927.2
99776.6
99402.1
98587
97033.9
94487.6
90927.6
86633.8
82004.5
77404.5
73002.7
68886.4
65038.6
61500.4
58198.2
55181.7
52358.4
49809
47438
45264.1
43285.3
41481.7
39846.4
38369.8
37046.1
35874
34845.6
33959.6
33201.7
32550.8
32030.8