/*--------------------------------*- C++ -*----------------------------------*\
| =========                 |                                                 |
| \\      /  F ield         | OpenFOAM: The Open Source CFD Toolbox           |
|  \\    /   O peration     | Version:  5.x                                   |
|   \\  /    A nd           | Web:      www.OpenFOAM.org                      |
|    \\/     M anipulation  |                                                 |
\*---------------------------------------------------------------------------*/
/*   Windows 32 and 64 bit porting by blueCAPE: http://www.bluecape.com.pt   *\
|  Based on Windows porting (2.0.x v4) by Symscape: http://www.symscape.com   |
\*---------------------------------------------------------------------------*/
FoamFile
{
    version     2.0;
    format      ascii;
    class       surfaceScalarField;
    location    "0.008";
    object      phi;
}
// * * * * * * * * * * * * * * * * * * * * * * * * * * * * * * * * * * * * * //

dimensions      [1 0 -1 0 0 0 0];

internalField   nonuniform List<scalar> 
19740
(
0.000229891
-7.03996e-006
0.000903019
-3.00382e-005
0.00317354
-8.53788e-005
0.0101595
-0.000230594
0.0282678
-0.000512322
0.0690368
-0.00095419
0.148231
-0.00144405
0.281602
-0.00204009
0.470255
-0.00240454
0.697568
-0.00229678
0.936792
-0.0019407
1.16575
-0.00160912
1.37352
-0.00145965
1.55714
-0.00122266
1.71776
-0.000983632
1.85685
-0.000784225
1.9774
-0.000135251
2.07865
-0.00132946
2.1661
0.00164778
2.24246
-0.00164227
2.29556
0.000536888
2.34787
0.0010101
2.3962
0.000455834
2.42488
0.000262181
2.43931
0.000372979
2.45563
0.000621347
2.47799
0.00101046
2.49683
0.00135594
2.50267
0.000839189
2.49611
0.000336736
2.48454
0.000455989
2.47525
-0.00140979
2.47808
-0.0015049
2.48922
0.00543754
2.49606
0.000691072
2.495
-0.000862424
2.49099
0.000469647
2.48181
0.00120653
2.46722
-0.00324557
2.45498
0.000793554
2.45063
0.00111172
2.45125
-0.00144505
2.46145
-0.00377598
2.48415
-0.000510539
2.50592
-0.00296553
2.52402
-0.00583286
2.53914
-0.00789096
2.55527
-0.00898584
2.5694
-0.00993295
2.57585
-0.0117752
2.58785
-0.0134512
2.59913
-0.0150307
2.59661
-0.0155097
2.53887
-0.0155885
2.41176
-0.0179733
2.28503
-0.013073
2.16776
-0.0090897
2.05678
0.000444365
1.95844
0.00268678
0.0146545
0.000219998
-1.28192e-005
0.000861048
-5.40868e-005
0.00301774
-0.000151767
0.00964025
-0.000398866
0.0267911
-0.000864289
0.06539
-0.00153957
0.140419
-0.00219619
0.266966
-0.00284906
0.446395
-0.00310415
0.663223
-0.00257764
0.892091
-0.0018411
1.11166
-0.00124924
1.31129
-0.00118735
1.48794
-0.000951932
1.64262
-0.00072205
1.7768
-0.000550952
1.89305
0.000656752
1.99117
-0.00202767
2.07583
0.00398129
2.14912
-0.00278489
2.20121
0.00149139
2.25344
0.00237876
2.29964
0.000946123
2.32633
0.000157848
2.34205
0.00035007
2.36139
0.00140028
2.38449
0.00242321
2.40104
0.00255817
2.40424
0.00106674
2.3974
-0.000399151
2.38794
9.94277e-005
2.38404
-0.00467705
2.39245
0.00296408
2.40293
0.00784467
2.40788
0.000437852
2.40592
-0.0020465
2.40171
0.000529491
2.39214
-4.18928e-005
2.37903
-0.00652127
2.37061
0.000403381
2.36941
0.000838311
2.37347
-0.00401774
2.38953
-0.00321948
2.4079
-0.00144657
2.42219
-0.0047593
2.43364
-0.00973697
2.44276
-0.0131421
2.44951
-0.0151634
2.45627
-0.0167839
2.46347
-0.0186709
2.47069
-0.0211314
2.47407
-0.0234045
2.45792
-0.0244024
2.37952
-0.0248315
2.22729
-0.028287
2.09588
-0.0181653
1.9686
-0.0112355
1.86191
0.00416806
1.76985
0.00665415
0.0149701
0.000212759
-1.86375e-005
0.000832998
-7.87975e-005
0.00292137
-0.000222788
0.0093402
-0.000587896
0.0259874
-0.0012959
0.0634964
-0.00234417
0.13648
-0.00343736
0.259699
-0.00461066
0.434533
-0.00519316
0.645906
-0.00459756
0.869052
-0.00357183
1.08315
-0.00269568
1.27776
-0.00245965
1.44996
-0.0020022
1.60069
-0.00159978
1.73144
-0.00118967
1.84439
0.000312554
1.94066
-0.0023909
2.02207
0.00414126
2.09263
-0.00293578
2.14867
0.00149775
2.19338
0.00289651
2.23521
0.00148841
2.26849
0.000699123
2.28739
0.000851513
2.29898
0.00189785
2.31338
0.002643
2.33065
0.00388714
2.34188
0.00198536
2.34121
0.000175889
2.33223
0.00108936
2.32198
-0.00468378
2.31778
0.00263732
2.32424
0.0110951
2.33305
0.000699429
2.33525
-0.0031254
2.33309
0.000990827
2.32916
0.00132035
2.31988
-0.00619636
2.3067
-0.000369371
2.29812
0.00128093
2.29425
-0.00312281
2.29408
-0.00383078
2.29982
-0.00331865
2.31295
-0.00459185
2.32464
-0.0103132
2.33414
-0.0144627
2.33989
-0.0169968
2.34494
-0.0185305
2.34995
-0.0196751
2.35372
-0.0218679
2.35139
-0.0248634
2.33864
-0.0265887
2.2738
-0.0259168
2.1362
-0.0326034
2.01427
-0.0181764
1.90073
-0.0112668
1.802
0.00526434
1.71643
0.0085885
0.0130545
0.000204027
-2.35313e-005
0.000796391
-9.90378e-005
0.00278628
-0.000279385
0.00889072
-0.000727122
0.0247063
-0.00160366
0.0603184
-0.00285249
0.129636
-0.00411169
0.246794
-0.00536983
0.41335
-0.00589428
0.615224
-0.00497176
0.828908
-0.00360994
1.03436
-0.00244977
1.22143
-0.00228309
1.38714
-0.00180692
1.53233
-0.00144117
1.65852
-0.000828933
1.76728
0.00036767
1.86116
-0.00135386
1.93921
0.00360094
2.00586
-0.00109618
2.0656
0.00150638
2.10564
0.00296851
2.14142
0.00208243
2.17901
0.00113667
2.20507
0.00117309
2.21508
0.00212122
2.22047
0.00321799
2.23209
0.00364151
2.24784
0.00243915
2.25774
0.000637792
2.25629
0.00149515
2.24741
-0.00422906
2.23767
0.00221987
2.23112
0.0105238
2.23626
-0.00186619
2.24441
0.000743937
2.24866
0.00099769
2.24909
-0.000247734
2.24781
-0.00610704
2.24115
-0.000289356
2.23263
-0.000511176
2.22535
-0.00324435
2.22225
-0.00328828
2.22182
-0.00286714
2.22401
-0.00554385
2.23049
-0.010354
2.23727
-0.0141682
2.24154
-0.0165914
2.24456
-0.0178445
2.24622
-0.0190432
2.24683
-0.0210726
2.24292
-0.0233323
2.21582
-0.0245135
2.11732
-0.0243961
1.96301
-0.0260893
1.84105
-0.0120051
1.73218
-0.00596474
1.64815
0.00803783
1.57609
0.0126375
0.0126609
0.000197005
-2.83363e-005
0.000769063
-0.000119328
0.00269206
-0.00033829
0.00859679
-0.000879657
0.0239189
-0.00196831
0.0584657
-0.00352671
0.12579
-0.00516947
0.239721
-0.00689234
0.401855
-0.00772903
0.598487
-0.00676403
0.806668
-0.00513957
1.00687
-0.00370352
1.18915
-0.00341255
1.35059
-0.00272137
1.49203
-0.00223768
1.61487
-0.00131317
1.72079
-0.000260986
1.81203
-0.00104622
1.88814
0.00232273
1.95321
-0.000168427
2.01105
0.00138067
2.05012
0.00285335
2.08489
0.00247173
2.12083
0.00179283
2.14573
0.00196668
2.15541
0.00259221
2.16076
0.00293532
2.17179
0.00386333
2.1866
0.00289126
2.19576
0.00152441
2.19411
0.00279015
2.18518
-0.00294878
2.17472
0.00329124
2.16812
0.00980546
2.17147
-0.00411483
2.17886
0.00278465
2.18213
0.0018208
2.18142
0.000263396
2.17954
-0.00482676
2.17245
0.00259861
2.16329
-0.000934876
2.15534
-0.00252644
2.15095
-0.00169731
2.14925
-0.00138481
2.15041
-0.00525296
2.15641
-0.00992862
2.16348
-0.0128671
2.16733
-0.0146372
2.16886
-0.0159919
2.16949
-0.0175841
2.16939
-0.0194703
2.16523
-0.0208709
2.13852
-0.021079
2.04175
-0.0195794
1.89442
-0.0176435
1.77879
-0.0105016
1.6746
-0.00472691
1.59482
0.00949497
1.52468
0.0162852
0.0135073
0.000189206
-3.24598e-005
0.000736775
-0.0001363
0.00257376
-0.000386313
0.00820461
-0.000994498
0.0228006
-0.00223743
0.0556842
-0.00396632
0.119773
-0.00578448
0.228307
-0.00760595
0.382988
-0.00841778
0.570978
-0.00718836
0.770499
-0.00528426
0.962736
-0.00359716
1.13804
-0.00330545
1.29346
-0.00259194
1.42975
-0.00214326
1.54825
-0.00102833
1.65056
-0.000189587
1.73874
-0.000356702
1.8123
0.00191146
1.87558
0.0013537
1.93101
0.00119768
1.96896
0.00304336
2.00453
0.00312833
2.03985
0.0022229
2.06243
0.0020812
2.0715
0.00255197
2.07901
0.00351928
2.0926
0.00427162
2.10749
0.00353792
2.1145
0.00208831
2.11096
0.00301782
2.10211
-0.00320422
2.09323
0.00277268
2.08963
0.00938927
2.0986
-0.00200106
2.10582
0.00346847
2.10814
0.00205925
2.10765
-0.000328522
2.10517
-0.00446716
2.09575
0.00167518
2.08663
-0.00199426
2.08102
-0.00288417
2.07969
-0.00243022
2.07997
-0.000993521
2.085
-0.00518035
2.09325
-0.00883173
2.09887
-0.011299
2.10258
-0.0137813
2.10487
-0.0152885
2.10578
-0.0167139
2.10597
-0.0181563
2.10247
-0.0189026
2.07881
-0.0181948
1.98789
-0.0137775
1.84049
-0.00883637
1.72346
-0.00876671
1.61507
0.000312277
1.53673
0.00802752
1.46721
0.0182383
0.0170791
0.000182513
-3.64244e-005
0.000710634
-0.000152938
0.00248329
-0.000435029
0.0079214
-0.00111755
0.0220401
-0.00254477
0.0538925
-0.00452974
0.116053
-0.00669026
0.221475
-0.0089197
0.371911
-0.0100298
0.554902
-0.00879467
0.749163
-0.00665261
0.936377
-0.00471504
1.10708
-0.00428492
1.25843
-0.00339021
1.39113
-0.00285726
1.50645
-0.00146934
1.60602
-0.000720367
1.69174
0.000115705
1.76349
0.000849763
1.82511
0.00224703
1.87907
0.00105467
1.91606
0.003129
1.95005
0.00350969
1.98401
0.0026926
2.00629
0.00256879
2.01517
0.00285248
2.02183
0.00412086
2.03421
0.00439292
2.04853
0.0039171
2.05578
0.00281197
2.05262
0.00374799
2.04362
-0.00227302
2.03423
0.00370197
2.02971
0.0079912
2.03633
-0.00167592
2.04351
0.00437233
2.04518
0.00262404
2.04356
0.000351623
2.04106
-0.00297531
2.0322
0.00255468
2.02279
-0.00254248
2.01623
-0.00214444
2.01326
-0.000642117
2.01258
0.000991403
2.01732
-0.00485118
2.02751
-0.0083834
2.03506
-0.010533
2.0397
-0.0125346
2.0417
-0.0141361
2.0435
-0.0160584
2.04457
-0.0170953
2.04382
-0.0175241
2.03144
-0.0164523
1.96852
-0.011317
1.82991
-0.00523743
1.71515
-0.00551401
1.60809
0.00280249
1.52811
0.00449514
1.45841
0.0186532
0.0211969
0.000175478
-3.98795e-005
0.000681848
-0.000167104
0.00237863
-0.000475544
0.00757607
-0.00121303
0.0210567
-0.00277818
0.0514438
-0.0049108
0.110738
-0.00725431
0.211345
-0.00957317
0.355063
-0.0107002
0.530173
-0.00925428
0.71648
-0.00687219
0.89635
-0.00469346
1.0606
-0.00425395
1.20637
-0.00330647
1.33427
-0.0028069
1.44556
-0.00122066
1.54175
-0.00072637
1.62463
0.000788228
1.6939
0.000461383
1.75357
0.0036809
1.80568
0.000807546
1.84162
0.00328467
1.87562
0.00417172
1.90892
0.00309319
1.92991
0.00266872
1.93868
0.00286608
1.94662
0.00382282
1.96008
0.0049212
1.97403
0.00464945
1.98013
0.00325957
1.97646
0.00377573
1.96833
-0.00213668
1.95997
0.00327249
1.95735
0.00734755
1.96682
0.00115295
1.97301
0.00557203
1.97493
0.00273673
1.97418
-0.000124329
1.97151
-0.00135137
1.96173
0.00182743
1.95291
-0.00240815
1.94791
-0.00233771
1.94701
-0.00114711
1.94809
0.00019942
1.95534
-0.00375355
1.96506
-0.00757547
1.97153
-0.0103508
1.97651
-0.0123126
1.97986
-0.0137459
1.98236
-0.0155241
1.98425
-0.0165783
1.98408
-0.0170226
1.97176
-0.0161398
1.9117
-0.0124589
1.77803
-0.0087216
1.66665
-0.00423505
1.56843
0.00505873
1.48992
0.00964979
1.40506
0.0224833
0.024387
0.000169174
-4.31455e-005
0.000657167
-0.000180726
0.00229292
-0.000515711
0.00730671
-0.00131287
0.0203308
-0.00303512
0.0497287
-0.00538234
0.107172
-0.00803343
0.20479
-0.0107006
0.344443
-0.0121187
0.514792
-0.0106941
0.696101
-0.00811375
0.87118
-0.00569473
1.03104
-0.00511091
1.17291
-0.00400247
1.29739
-0.00343536
1.40562
-0.00160121
1.49918
-0.00123992
1.57972
0.000991234
1.64734
-0.00058833
1.70549
0.00425005
1.7561
0.000602907
1.79113
0.00331187
1.8238
0.00403585
1.85582
0.00334188
1.87634
0.00321387
1.88481
0.00343981
1.89204
0.0033691
1.90464
0.00504265
1.91822
0.00499142
1.92445
0.00378369
1.92096
0.00415843
1.9124
-0.000956199
1.90388
0.00385542
1.90062
0.00631499
1.9085
0.00317503
1.91492
0.00598584
1.91615
0.00334575
1.91427
0.00108783
1.91158
-0.000476811
1.90225
0.00108442
1.893
-0.00191146
1.88683
-0.00141106
1.88434
0.000163402
1.8843
0.000528511
1.89129
-0.00358995
1.90349
-0.00755373
1.91198
-0.00976406
1.91706
-0.0113388
1.92004
-0.0126768
1.92274
-0.0149723
1.92486
-0.016787
1.92537
-0.0176039
1.91672
-0.0169811
1.86884
-0.0137536
1.74563
-0.0118274
1.63889
-0.00326381
1.54258
0.00924225
1.46918
0.0135046
1.38354
0.0232037
0.0270645
0.000162777
-4.60232e-005
0.00063127
-0.000192486
0.00219946
-0.000549676
0.00699995
-0.00139263
0.0194595
-0.00323458
0.0475595
-0.00571522
0.102454
-0.00854543
0.195764
-0.0112986
0.329353
-0.0127648
0.492513
-0.0111753
0.666498
-0.0083984
0.834792
-0.00574364
0.988684
-0.00513457
1.12538
-0.00395477
1.2454
-0.00342663
1.34988
-0.00138494
1.44028
-0.00127694
1.51818
0.0016253
1.58337
-0.00101211
1.63953
0.00585114
1.68873
0.000212079
1.72266
0.00348601
1.75483
0.00521404
1.78634
0.00395416
1.80625
0.00320293
1.81473
0.00320003
1.82248
0.00419176
1.83533
0.00564989
1.84859
0.00574793
1.85446
0.00427416
1.85114
0.00423685
1.84376
-0.00096649
1.83576
0.00342114
1.83322
0.00516849
1.84214
0.00449057
1.84805
0.00719436
1.85003
0.00340184
1.84923
-8.14205e-005
1.84666
0.000197816
1.83712
-0.000230549
1.82834
-0.00159582
1.8235
-0.00127138
1.82253
-0.00016408
1.82333
-0.000144688
1.83101
-0.00262114
1.84157
-0.00631616
1.8485
-0.00962947
1.854
-0.0115435
1.85776
-0.0131712
1.86017
-0.0151659
1.86201
-0.0175819
1.86225
-0.0185319
1.85278
-0.0181622
1.80397
-0.0150772
1.68484
-0.0137954
1.57966
-0.00157383
1.48368
0.0125862
1.41126
0.0178447
1.33168
0.0261944
0.0269023
0.000156886
-4.87065e-005
0.000608173
-0.000203609
0.00211903
-0.000582676
0.00674627
-0.00147396
0.018773
-0.00344698
0.0459316
-0.00611236
0.0990603
-0.00921517
0.189514
-0.0122673
0.31922
-0.0140115
0.477846
-0.012466
0.647094
-0.00953351
0.810839
-0.00665518
0.960541
-0.00589277
1.0935
-0.00455341
1.21026
-0.00399549
1.31183
-0.00172855
1.3997
-0.00173336
1.47539
0.00195123
1.53908
-0.00215076
1.59376
0.00771204
1.64159
5.54502e-005
1.67459
0.00355007
1.70542
0.00480085
1.73583
0.00384169
1.75547
0.0032927
1.76363
0.0031368
1.7704
0.00496009
1.78229
0.00579798
1.79536
0.00604675
1.80175
0.00483998
1.7989
0.00460638
1.79096
-3.74097e-005
1.78287
0.00339567
1.77933
0.0043132
1.78698
0.0057781
1.79328
0.00757773
1.79478
0.00410598
1.79307
0.000653201
1.79083
0.000884618
1.78198
-0.000212192
1.77298
-0.000825121
1.76689
-0.0005452
1.76454
0.00074844
1.76457
-0.000674345
1.77165
-0.002952
1.78439
-0.0070806
1.79335
-0.00998274
1.7983
-0.0109442
1.80054
-0.0121829
1.8029
-0.0156473
1.80486
-0.0185673
1.80555
-0.0193439
1.79771
-0.0188643
1.75481
-0.0161777
1.64338
-0.0157881
1.54212
0.000300948
1.4515
0.0138037
1.37956
0.0240483
1.30618
0.0288401
0.0286962
0.000151039
-5.10876e-005
0.000584711
-0.000213311
0.00203492
-0.000610948
0.00647163
-0.00154055
0.0179953
-0.00361526
0.0439979
-0.00640419
0.0948503
-0.00967499
0.181437
-0.0128151
0.305663
-0.0146299
0.45773
-0.0129597
0.62023
-0.00986181
0.777691
-0.00676832
0.921863
-0.005957
1.05003
-0.00454742
1.16264
-0.00401094
1.26072
-0.00153615
1.34566
-0.00184346
1.41888
0.00274845
1.48021
-0.00253433
1.53297
0.00810737
1.57957
-0.000352713
1.61153
0.00364784
1.64166
0.00628934
1.67157
0.00495083
1.6908
0.00392034
1.69901
0.00364619
1.70612
0.00464639
1.71803
0.00641541
1.73077
0.00679274
1.7369
0.00536548
1.73422
0.00470113
1.72756
0.000265791
1.71983
0.00328994
1.71679
0.00308337
1.72462
0.00696103
1.73059
0.00851239
1.73285
0.00419069
1.73217
0.00106902
1.73004
0.00260175
1.72135
-0.00062072
1.71273
-0.00112483
1.70785
-0.000542831
1.7068
0.000350593
1.70704
-0.000928211
1.71418
-0.00249723
1.72535
-0.006337
1.73363
-0.00930714
1.73873
-0.0114155
1.74291
-0.013671
1.74574
-0.0167122
1.74741
-0.0191842
1.74806
-0.0198769
1.74016
-0.0193003
1.69861
-0.0173589
1.58867
-0.01583
1.48784
0.00404829
1.39931
0.0171349
1.32688
0.031714
1.25679
0.0266127
0.0326005
0.00014556
-5.32837e-005
0.000563223
-0.00022236
0.00195994
-0.000637939
0.00623442
-0.00160691
0.0173507
-0.00379014
0.0424631
-0.00673898
0.0916405
-0.0102495
0.17551
-0.0136479
0.296035
-0.0157268
0.443788
-0.0141183
0.601796
-0.0108994
0.754947
-0.00760851
0.895136
-0.00664312
1.01975
-0.00507132
1.12923
-0.00450585
1.22454
-0.00182734
1.30706
-0.00228193
1.37818
0.00313804
1.43815
-0.00369106
1.48946
0.00896173
1.53473
-0.000567118
1.56586
0.0035305
1.5947
0.00678264
1.62357
0.00613846
1.64265
0.00499715
1.6506
0.00443998
1.65669
0.0047528
1.66752
0.00660954
1.68009
0.00711791
1.6869
0.00599513
1.6849
0.00495346
1.67766
0.000782073
1.66983
0.00337767
1.66567
0.00332445
1.67248
0.00785085
1.67891
0.00912837
1.68096
0.00464484
1.67959
0.00127415
1.67788
0.00256626
1.66997
-0.000521566
1.66134
-0.000943936
1.65516
8.73494e-006
1.6528
0.00100911
1.65267
-0.00121035
1.65904
-0.00319119
1.67255
-0.00739313
1.68278
-0.00985475
1.68811
-0.0106326
1.69101
-0.0136707
1.69423
-0.0178074
1.69644
-0.0201107
1.69811
-0.0208168
1.6944
-0.0202
1.66625
-0.0173321
1.57677
-0.0134166
1.47223
0.00610814
1.37706
0.0261107
1.30092
0.032162
1.23609
0.0280895
0.038066
0.000140194
-5.52398e-005
0.000541851
-0.000230305
0.00188377
-0.00066129
0.0059869
-0.00166238
0.0166521
-0.00393196
0.0407292
-0.00699291
0.0878645
-0.0106594
0.168253
-0.0141483
0.283815
-0.0163187
0.42558
-0.0146176
0.577374
-0.0112513
0.724704
-0.00775041
0.859757
-0.00673943
0.979917
-0.00509209
1.08556
-0.00455463
1.17762
-0.00166071
1.2574
-0.00243344
1.32618
0.0038633
1.38391
-0.00418702
1.43344
0.0103455
1.47754
-0.00111977
1.50768
0.00365032
1.53585
0.00729347
1.56417
0.00584057
1.58277
0.00447335
1.59073
0.00394033
1.59718
0.00495617
1.60814
0.00714625
1.62036
0.00782359
1.62675
0.00662415
1.62475
0.00506893
1.61874
0.00120863
1.61137
0.00316359
1.60781
0.00156739
1.61442
0.00891366
1.62042
0.0101366
1.62302
0.00504185
1.62252
0.000788482
1.62087
0.00272863
1.61329
-0.00108915
1.60497
-0.00184981
1.59999
-0.000583384
1.59876
0.000378891
1.59862
-0.00149057
1.60506
-0.00371898
1.61697
-0.0071712
1.62536
-0.00922357
1.63161
-0.0113937
1.63658
-0.015829
1.6401
-0.0192006
1.64276
-0.0214877
1.64494
-0.0221245
1.64284
-0.0211863
1.6202
-0.0182601
1.54256
-0.0133976
1.43973
0.00562941
1.33817
0.0353366
1.26608
0.0291785
1.20078
0.0330364
0.0437805
0.000135114
-5.70273e-005
0.000521933
-0.000237627
0.00181419
-0.000683247
0.0057662
-0.00171658
0.01605
-0.00407644
0.0392899
-0.00727382
0.0848438
-0.0111512
0.162656
-0.0148646
0.274701
-0.0172872
0.412364
-0.0156578
0.559899
-0.0121972
0.703144
-0.00851398
0.834424
-0.0073668
0.951203
-0.00554749
1.05386
-0.00497805
1.14328
-0.00190718
1.22075
-0.00282692
1.28757
0.00420508
1.344
-0.00542162
1.39218
0.0112875
1.4349
-0.00143178
1.46427
0.00353348
1.49141
0.00759169
1.51873
0.00609006
1.53699
0.00421082
1.54469
0.00362462
1.55038
0.0050672
1.56048
0.00732378
1.57247
0.00817251
1.57931
0.0071539
1.57781
0.00524366
1.57126
0.00223747
1.56376
0.00322226
1.55944
0.00175562
1.56559
0.00869831
1.57199
0.011092
1.57433
0.00539939
1.57318
0.00130165
1.57184
0.00347513
1.56483
-0.0005162
1.55671
-0.00188316
1.55075
-0.000507955
1.54854
0.000696216
1.54859
-0.00190891
1.55457
-0.00489248
1.56788
-0.00841703
1.57813
-0.00983797
1.58475
-0.0116988
1.58799
-0.0158033
1.5917
-0.020479
1.59485
-0.0232425
1.59779
-0.0243028
1.59826
-0.0232357
1.58438
-0.0197489
1.52574
-0.0131961
1.42583
0.00362758
1.32817
0.0360928
1.25395
0.0295889
1.18643
0.0383745
0.0487221
0.000130178
-5.86212e-005
0.000502387
-0.000244079
0.00174487
-0.000702368
0.00554188
-0.00176265
0.0154189
-0.00419583
0.0377267
-0.00749277
0.081441
-0.0115151
0.15611
-0.0153221
0.263651
-0.0178503
0.395844
-0.0161562
0.537656
-0.0125727
0.675512
-0.00868271
0.802016
-0.00748023
0.914656
-0.00559282
1.01375
-0.00505447
1.10014
-0.00176179
1.17507
-0.00300595
1.23965
0.00493578
1.29398
-0.00603181
1.34052
0.0125541
1.38214
-0.0020712
1.41055
0.00363655
1.43707
0.00826315
1.46381
0.00650511
1.4815
0.0048109
1.48916
0.00410891
1.49529
0.00521388
1.5056
0.00780312
1.51721
0.00883991
1.52347
0.00772553
1.52186
0.00518056
1.51631
0.0018503
1.50946
0.00282161
1.50601
0.000547587
1.51182
0.00974883
1.51762
0.0123239
1.52029
0.00571056
1.51992
0.000593114
1.51845
0.00360009
1.51163
-0.00120214
1.50371
-0.00287846
1.49892
-0.00118797
1.4977
-0.000123234
1.49774
-0.00240971
1.50391
-0.00575491
1.51577
-0.00858718
1.52483
-0.00978272
1.53217
-0.0127599
1.53731
-0.018199
1.54146
-0.0223262
1.54483
-0.0254943
1.54789
-0.0270551
1.54936
-0.0262735
1.53966
-0.0227338
1.49181
-0.0156841
1.39419
0.00222742
1.29835
0.0336596
1.22302
0.0316751
1.15631
0.0418024
0.0530805
0.000125474
-6.00657e-005
0.000483964
-0.000249961
0.00168047
-0.00072011
0.00533726
-0.00180688
0.0148587
-0.00431483
0.0363825
-0.00772781
0.0786094
-0.0119361
0.150844
-0.0159407
0.255051
-0.0187046
0.383348
-0.0170897
0.52112
-0.0134375
0.655105
-0.00937179
0.778039
-0.00804822
0.887476
-0.00599701
0.983726
-0.00541946
1.0676
-0.00197961
1.14034
-0.00340164
1.20308
0.00495655
1.25615
-0.00719263
1.30142
0.0135008
1.34164
-0.00234209
1.36933
0.00351094
1.395
0.00852861
1.42081
0.00683411
1.43804
0.00589269
1.44541
0.00485175
1.45097
0.00528021
1.46066
0.00794456
1.47205
0.00917426
1.47853
0.00818385
1.47718
0.00525732
1.47121
0.00268585
1.46414
0.00325515
1.46018
-0.000979939
1.46606
0.00923235
1.47221
0.0129051
1.4745
0.00621322
1.47344
0.000803139
1.4722
0.00334176
1.46577
-3.98977e-005
1.45817
-0.00311565
1.45266
-0.00130637
1.45086
5.87584e-005
1.45193
-0.00303535
1.45755
-0.00718617
1.47028
-0.00978889
1.48057
-0.0106363
1.4879
-0.0137428
1.49163
-0.0187494
1.49595
-0.0243153
1.49964
-0.0282244
1.50321
-0.0305094
1.50593
-0.0299213
1.50084
-0.0261118
1.46681
-0.0186607
1.37863
0.00158242
1.2868
0.0267896
1.21003
0.0329465
1.14108
0.0452179
0.0560351
0.000120924
-6.13519e-005
0.000466037
-0.000255146
0.00161714
-0.000735617
0.00513306
-0.00184493
0.0142859
-0.00441447
0.0349666
-0.00791551
0.0755294
-0.0122582
0.144916
-0.016359
0.245028
-0.0192343
0.368324
-0.0175825
0.500827
-0.0138353
0.629822
-0.0095793
0.748316
-0.00817699
0.853895
-0.00605521
0.946833
-0.00551888
1.02789
-0.00184855
1.09825
-0.00358916
1.15889
0.00591803
1.21001
-0.00783182
1.25372
0.0147318
1.29293
-0.00299328
1.31972
0.00355979
1.34475
0.00919844
1.36997
0.00735194
1.38664
0.00527409
1.39396
0.00424332
1.39992
0.00537986
1.40977
0.00834704
1.42074
0.00978415
1.42667
0.00872225
1.42529
0.00512415
1.42009
0.0024095
1.41369
0.00261142
1.41059
-0.000763088
1.41602
0.0104991
1.42153
0.0140629
1.42406
0.00643889
1.4237
0.000320022
1.42225
0.00388238
1.41602
-0.00105819
1.40858
-0.00424591
1.404
-0.00219392
1.40279
-0.000687827
1.40327
-0.00382171
1.4095
-0.00841798
1.42114
-0.010159
1.43045
-0.0111301
1.43771
-0.0150626
1.44319
-0.0214256
1.44763
-0.0268549
1.4514
-0.0312783
1.455
-0.0339061
1.45773
-0.0332654
1.45407
-0.0295621
1.42477
-0.0217137
1.34317
-0.00047207
1.25417
0.0182726
1.1784
0.0325667
1.11118
0.0471012
0.0580712
0.000116573
-6.25082e-005
0.000449016
-0.000259826
0.00155764
-0.000749829
0.00494375
-0.00188093
0.013766
-0.00451194
0.0337149
-0.00811167
0.0728834
-0.0126188
0.139978
-0.0168943
0.236934
-0.0199864
0.356534
-0.0184208
0.485206
-0.0146276
0.610532
-0.0102061
0.725648
-0.00868934
0.828198
-0.00642049
0.918432
-0.00583899
0.997099
-0.00204171
1.06537
-0.00395509
1.12426
0.00696316
1.17417
-0.00892804
1.2167
0.0156726
1.25454
-0.00318418
1.28062
0.00340184
1.30494
0.00943849
1.3293
0.00775117
1.3455
0.0048326
1.35251
0.00375788
1.35799
0.00540783
1.36733
0.00847169
1.37811
0.0100954
1.38418
0.0091785
1.38291
0.00520045
1.37744
0.00311175
1.37085
0.00280215
1.36743
-0.00180289
1.37296
0.0105226
1.37878
0.0144932
1.381
0.00696071
1.38001
0.000481752
1.37874
0.00416315
1.37279
0.000522842
1.36564
-0.00484024
1.3605
-0.002194
1.35896
-0.00013254
1.36089
-0.00486678
1.36586
-0.00962408
1.37797
-0.0112307
1.38776
-0.0121083
1.39462
-0.0158907
1.39907
-0.0232903
1.40326
-0.0293453
1.40694
-0.0341455
1.41053
-0.0368946
1.41379
-0.0362714
1.41181
-0.0321597
1.38867
-0.0245942
1.31586
-0.005333
1.23048
0.00903532
1.15577
0.0319778
1.08977
0.0484264
0.0586919
0.000112374
-6.3534e-005
0.000432537
-0.00026394
0.00149962
-0.000762258
0.00475722
-0.00191218
0.013244
-0.00459452
0.032427
-0.00827155
0.0700847
-0.0129031
0.13459
-0.017275
0.227816
-0.0204814
0.342839
-0.0189052
0.46666
-0.0150369
0.587367
-0.0104456
0.698355
-0.00883469
0.79731
-0.00648262
0.884463
-0.00594784
0.960511
-0.00191253
1.02656
-0.00414763
1.08349
0.00684593
1.13158
-0.00957214
1.17264
0.0169312
1.20953
-0.00384691
1.23477
0.0034335
1.25845
0.0100976
1.28219
0.00812062
1.29782
0.00561577
1.30481
0.00417673
1.31067
0.00537333
1.32014
0.00878537
1.33047
0.0106503
1.33599
0.00969909
1.3347
0.00506943
1.32982
0.00291889
1.32389
0.00177998
1.32119
-0.00335258
1.32644
0.0115361
1.3316
0.0155085
1.3339
0.00710296
1.33351
-8.78036e-005
1.33203
0.004885
1.32627
-0.000521186
1.31917
-0.00578453
1.31479
-0.00312571
1.31363
-0.0010666
1.3143
-0.00587121
1.32029
-0.0108959
1.33174
-0.0118468
1.3405
-0.0128434
1.34708
-0.017555
1.35221
-0.0256673
1.35623
-0.0318466
1.35966
-0.0366184
1.36308
-0.0394745
1.36594
-0.0384474
1.36468
-0.0343958
1.34463
-0.0271122
1.27748
-0.0113772
1.19404
0.00079733
1.11965
0.0330357
1.05549
0.0492584
0.0584423
0.000108349
-6.44483e-005
0.000416818
-0.000267614
0.00144468
-0.000773515
0.00458232
-0.00194137
0.0127625
-0.00467403
0.031264
-0.00843473
0.067618
-0.013212
0.129969
-0.0177385
0.220215
-0.021144
0.331736
-0.0196594
0.451923
-0.0157607
0.569155
-0.0110189
0.676945
-0.00929994
0.773037
-0.00681237
0.857625
-0.00622599
0.931402
-0.00208865
0.995472
-0.00447108
1.05073
0.00628963
1.09765
-0.0106111
1.13761
0.0179198
1.17317
-0.00410602
1.19774
0.00327164
1.22081
0.010335
1.24377
0.00840757
1.2589
0.00630114
1.26556
0.00365573
1.27101
0.00539085
1.28009
0.00891563
1.29027
0.0109475
1.29584
0.0101496
1.29456
0.00510661
1.28947
0.00325796
1.2833
0.00156146
1.28055
-0.00450426
1.2859
0.0119952
1.29134
0.0158926
1.29336
0.00764389
1.29243
-0.000227795
1.29105
0.00516601
1.28543
0.000860104
1.27867
-0.00645512
1.27381
-0.00301507
1.27235
-0.000550519
1.27429
-0.0072258
1.27862
-0.0114044
1.28941
-0.0121104
1.29768
-0.0130209
1.30441
-0.0193514
1.30936
-0.0274478
1.31316
-0.0337225
1.31634
-0.0383828
1.31943
-0.041506
1.32237
-0.0407181
1.3232
-0.0374339
1.31069
-0.0305281
1.25455
-0.0178155
1.17385
-0.00663273
1.09838
0.0360105
1.03321
0.050454
0.0585634
0.000104471
-6.52544e-005
0.000401645
-0.000270826
0.00139141
-0.000783335
0.00441144
-0.00196684
0.0122851
-0.00474203
0.0300885
-0.00857012
0.0650661
-0.0134622
0.125058
-0.0180835
0.211897
-0.0216064
0.319225
-0.0201333
0.434945
-0.0161707
0.547902
-0.0112738
0.651858
-0.00945732
0.744598
-0.00688168
0.826317
-0.00633477
0.897651
-0.00194116
0.95966
-0.00467878
1.01308
0.0078699
1.05833
-0.0112503
1.0969
0.0191897
1.13153
-0.00466068
1.15533
0.00331489
1.17781
0.0109202
1.2001
0.00860031
1.21463
0.00567591
1.22129
0.00396654
1.22715
0.00529682
1.23632
0.0091933
1.24601
0.0114778
1.25103
0.010646
1.24974
0.00492561
1.24514
0.0031429
1.23972
0.00145588
1.2375
-0.00511048
1.24261
0.01321
1.24743
0.0169515
1.24946
0.00760771
1.24905
-0.000563676
1.24753
0.00597172
1.24223
0.000147618
1.23537
-0.00738432
1.23087
-0.0036503
1.22936
-0.00126678
1.22956
-0.00768717
1.23408
-0.0124093
1.2436
-0.0115492
1.2528
-0.0139933
1.25974
-0.0211093
1.26491
-0.0289024
1.26891
-0.0351412
1.27212
-0.0397798
1.275
-0.0431059
1.27792
-0.0432123
1.28012
-0.0407346
1.27438
-0.0334446
1.23522
-0.0214827
1.15875
-0.0119511
1.0797
0.0348041
1.00972
0.0515407
0.05997
0.000100747
-6.59656e-005
0.000387129
-0.00027366
0.0013407
-0.000792121
0.00424996
-0.00199036
0.0118396
-0.00480656
0.0290096
-0.00870544
0.0627706
-0.0137268
0.120742
-0.0184853
0.204773
-0.0221921
0.308785
-0.0208131
0.421062
-0.0168293
0.530725
-0.011797
0.631655
-0.0098815
0.72169
-0.00717923
0.800979
-0.0065728
0.870163
-0.00210692
0.930288
-0.00498182
0.982099
0.00937024
1.02622
-0.0122038
1.06381
0.0201731
1.09702
-0.00492492
1.12025
0.00317953
1.14239
0.0111428
1.16385
0.0087979
1.17765
0.00511994
1.18399
0.00450602
1.18974
0.00532666
1.19877
0.00933653
1.20827
0.0117712
1.21307
0.0110305
1.21158
0.00491021
1.20678
0.00329692
1.20107
0.00118769
1.19914
-0.00636919
1.20446
0.0141994
1.20961
0.0173594
1.21144
0.00781706
1.2106
-0.000752357
1.20925
0.00613944
1.20414
0.00128843
1.19751
-0.00844668
1.1921
-0.00368793
1.18997
-0.000945865
1.1906
-0.00846162
1.19252
-0.0127585
1.20101
-0.0110138
1.21057
-0.0143431
1.21819
-0.0222841
1.22369
-0.0297612
1.22767
-0.0359448
1.23051
-0.0406653
1.23279
-0.0441198
1.2354
-0.0453635
1.23792
-0.0438298
1.23642
-0.0369702
1.21251
-0.0242702
1.14975
-0.00943645
1.07571
0.0272188
1.00584
0.0504138
0.0663233
9.71622e-005
-6.65868e-005
0.000373139
-0.000276113
0.00129169
-0.000799738
0.00409307
-0.00201094
0.011402
-0.00486213
0.0279335
-0.00881942
0.0604366
-0.0139465
0.116252
-0.0187975
0.197166
-0.0226243
0.297332
-0.0212743
0.405494
-0.0172353
0.511202
-0.012057
0.608569
-0.0100461
0.69548
-0.00725798
0.772097
-0.00668165
0.838987
-0.00191614
0.897254
-0.00511619
0.947162
0.00870635
0.990129
-0.0123776
1.02617
0.0207676
1.05744
-0.00503625
1.08244
0.00324147
1.10277
0.0115473
1.12139
0.00887991
1.13598
0.0056229
1.14477
0.00380351
1.15059
0.00525492
1.1572
0.00949394
1.16492
0.0120589
1.17014
0.0113874
1.17017
0.00487462
1.16668
0.00311109
1.16204
0.00108765
1.15982
-0.00709416
1.16364
0.014544
1.16761
0.0187578
1.16956
0.00786573
1.16939
-0.0010651
1.16843
0.00563604
1.16515
0.000564968
1.15939
-0.00922891
1.15372
-0.00422006
1.15065
-0.00128633
1.14931
-0.00825376
1.14975
-0.013492
1.15396
-0.012562
1.16244
-0.0137094
1.17007
-0.0227535
1.17584
-0.0302511
1.17961
-0.0362993
1.18207
-0.0412689
1.1838
-0.0446691
1.18569
-0.0465112
1.18765
-0.0455737
1.18679
-0.0395309
1.16702
-0.0266802
1.11453
-0.00731205
1.04952
0.0200068
0.984231
0.0500597
0.074122
9.37165e-005
-6.7128e-005
0.00035973
-0.000278244
0.00124489
-0.000806457
0.00394401
-0.00202973
0.01099
-0.00491414
0.0269335
-0.00893122
0.0583031
-0.0141731
0.112227
-0.0191467
0.190499
-0.0231435
0.287531
-0.021888
0.392429
-0.0178344
0.495016
-0.012533
0.58952
-0.0104325
0.673875
-0.00752747
0.748197
-0.00688168
0.813045
-0.00210961
0.869593
-0.00527278
0.917707
0.00775372
0.960067
-0.0122558
0.995055
0.0202526
1.0235
-0.00454963
1.05113
0.00329072
1.07021
0.0113212
1.08442
0.00891197
1.09974
0.00625367
1.11248
0.0036041
1.11881
0.00543189
1.12131
0.00945297
1.12456
0.0119184
1.12995
0.0113444
1.13439
0.00502532
1.13514
0.0035227
1.13159
0.000929999
1.12753
-0.00730493
1.12547