/*--------------------------------*- C++ -*----------------------------------*\
| =========                 |                                                 |
| \\      /  F ield         | OpenFOAM: The Open Source CFD Toolbox           |
|  \\    /   O peration     | Version:  5.x                                   |
|   \\  /    A nd           | Web:      www.OpenFOAM.org                      |
|    \\/     M anipulation  |                                                 |
\*---------------------------------------------------------------------------*/
/*   Windows 32 and 64 bit porting by blueCAPE: http://www.bluecape.com.pt   *\
|  Based on Windows porting (2.0.x v4) by Symscape: http://www.symscape.com   |
\*---------------------------------------------------------------------------*/
FoamFile
{
    version     2.0;
    format      ascii;
    class       volScalarField;
    location    "0.008";
    object      T;
}
// * * * * * * * * * * * * * * * * * * * * * * * * * * * * * * * * * * * * * //

dimensions      [0 0 0 1 0 0 0];

internalField   nonuniform List<scalar> 
10000
(
348.431
348.425
348.406
348.342
348.155
347.69
346.687
344.795
341.74
337.51
332.408
326.857
321.23
315.688
310.326
305.111
300.254
295.06
291.538
285.562
282.618
279.364
274.336
270.442
268.557
266.704
263.524
259.767
257.004
255.878
255.757
255.758
255.192
253.054
251.214
250.498
250.403
250.629
251.815
253.277
253.966
254.088
253.756
252.068
249.85
248.365
247.475
246.994
246.781
246.707
246.695
246.827
247.601
251.547
260.957
280.937
293.143
316.04
327.341
354.566
348.431
348.425
348.406
348.343
348.159
347.701
346.713
344.847
341.828
337.636
332.566
327.037
321.421
315.881
310.516
305.297
300.407
295.253
291.608
285.653
282.841
279.286
274.142
270.532
268.758
266.544
262.946
259.177
256.741
255.889
255.765
255.551
254.273
251.631
250.083
249.605
249.596
250.005
251.464
252.657
253.06
253.014
252.16
250.129
248.584
247.675
247.209
246.999
246.924
246.913
246.961
247.263
248.663
254.037
268.149
287.718
304.15
328.344
339.798
365.552
348.431
348.425
348.406
348.343
348.159
347.702
346.715
344.851
341.834
337.645
332.58
327.057
321.45
315.922
310.57
305.379
300.453
295.569
291.212
286.752
282.355
279.13
275.396
271.166
268.126
266.204
264.026
260.905
257.717
255.75
255.195
255.169
255.014
253.946
251.95
250.825
250.496
250.516
250.928
252.215
253.406
253.99
254.116
253.927
252.896
251.547
250.633
250.057
249.724
249.572
249.538
249.601
250.355
254.389
266.265
286.097
300.104
323.003
333.812
357.832
348.431
348.425
348.406
348.344
348.162
347.712
346.738
344.896
341.911
337.757
332.722
327.22
321.623
316.1
310.744
305.558
300.556
295.921
290.808
287.65
281.987
278.585
276.072
271.82
267.452
265.005
263.717
261.766
258.639
255.51
253.688
253.251
253.35
253.405
253.038
251.474
250.231
249.861
249.858
250.102
251.028
252.082
252.672
252.856
252.842
252.507
251.727
251.11
250.731
250.544
250.499
250.636
252.031
258.745
275.424
296.754
312.685
334.899
344.925
366.11
348.431
348.425
348.406
348.344
348.163
347.714
346.741
344.903
341.921
337.771
332.74
327.243
321.655
316.141
310.799
305.629
300.645
296.026
290.954
287.79
282.211
278.799
276.289
272.129
267.821
265.352
264.059
262.179
259.165
256.1
254.264
253.778
253.84
253.972
253.693
252.293
251.049
250.648
250.652
250.872
251.756
252.862
253.481
253.664
253.649
253.314
252.459
251.742
251.283
251.045
250.977
251.099
252.438
259.075
275.483
296.982
312.568
334.477
344.313
364.873
348.431
348.425
348.407
348.345
348.166
347.722
346.761
344.942
341.988
337.87
332.868
327.391
321.814
316.305
310.962
305.784
300.803
296.131
291.146
287.804
282.226
279.055
276.269
271.811
267.731
265.598
264.177
261.779
258.402
255.474
254.039
253.816
253.931
253.829
252.816
250.938
249.96
249.723
249.794
250.352
251.626
252.56
252.972
253.024
252.787
251.913
251.042
250.468
250.134
249.968
249.92
250.05
251.318
257.544
274.035
295.852
312.832
335.238
345.329
366.344
348.431
348.425
348.407
348.346
348.167
347.724
346.766
344.951
342.001
337.887
332.889
327.417
321.846
316.345
311.014
305.851
300.882
296.239
291.249
287.971
282.441
279.172
276.496
272.189
268.05
265.793
264.422
262.231
259.015
256.052
254.487
254.173
254.268
254.267
253.55
251.788
250.752
250.455
250.494
250.924
252.127
253.149
253.625
253.689
253.489
252.591
251.54
250.81
250.357
250.121
250.044
250.096
250.865
255.204
268.613
290.044
306.1
328.779
339.081
360.957
348.431
348.425
348.407
348.346
348.169
347.731
346.782
344.985
342.06
337.975
333.004
327.552
321.992
316.497
311.165
305.997
301.027
296.356
291.399
288.023
282.471
279.351
276.497
271.993
267.992
265.928
264.446
261.919
258.493
255.622
254.264
254.076
254.183
254.013
252.784
250.87
249.926
249.708
249.796
250.45
251.807
252.738
253.117
253.13
252.691
251.512
250.524
249.87
249.478
249.283
249.221
249.286
250.092
254.483
268.097
289.562
306.243
329.533
340.028
362.156
348.431
348.425
348.407
348.347
348.171
347.733
346.788
344.995
342.076
337.995
333.028
327.579
322.025
316.536
311.215
306.06
301.101
296.452
291.5
288.17
282.665
279.462
276.701
272.324
268.276
266.117
264.679
262.317
259.012
256.114
254.67
254.42
254.517
254.428
253.404
251.568
250.599
250.323
250.383
250.923
252.253
253.263
253.7
253.724
253.341
252.046
250.802
249.964
249.452
249.189
249.096
249.125
249.712
253.252
264.982
286.191
302.042
325.28
335.872
358.361
348.431
348.425
348.407
348.347
348.173
347.739
346.802
345.025
342.128
338.074
333.132
327.703
322.159
316.677
311.356
306.197
301.235
296.574
291.616
288.258
282.689
279.595
276.736
272.211
268.218
266.163
264.672
262.123
258.678
255.788
254.408
254.212
254.319
254.148
252.899
250.926
249.943
249.711
249.786
250.433
251.851
252.849
253.254
253.262
252.748
251.347
250.176
249.404
248.947
248.72
248.64
248.678
249.33
253.088
265.352
286.671
302.945
326.476
337.282
359.914
348.431
348.425
348.407
348.348
348.174
347.742
346.808
345.036
342.145
338.096
333.157
327.731
322.192
316.715
311.403
306.257
301.301
296.667
291.692
288.417
282.857
279.665
276.938
272.548
268.457
266.277
264.858
262.522
259.201
256.241
254.728
254.453
254.561
254.472
253.486
251.595
250.555
250.224
250.281
250.803
252.147
253.204
253.658
253.692
253.275
251.857
250.503
249.596
249.049
248.762
248.656
248.673
249.201
252.501
263.649
284.821
300.397
323.585
334.382
357.123
348.431
348.425
348.407
348.348
348.176
347.748
346.821
345.062
342.191
338.166
333.251
327.843
322.316
316.846
311.535
306.385
301.428
296.786
291.802
288.502
282.891
279.786
276.983
272.467
268.408
266.31
264.859
262.381
258.941
255.967
254.483
254.246
254.357
254.24
253.126
251.08
250.002
249.719
249.766
250.344
251.758
252.84
253.301
253.326
252.852
251.365
250.007
249.099
248.55
248.269
248.165
248.183
248.718
252.029
263.24
284.675
300.568
324.133
334.962
357.75
348.431
348.425
348.408
348.349
348.177
347.751
346.827
345.074
342.208
338.189
333.277
327.872
322.348
316.882
311.579
306.441
301.488
296.872
291.867
288.653
283.051
279.821
277.167
272.802
268.627
266.374
264.991
262.752
259.452
256.395
254.749
254.418
254.532
254.474
253.65
251.728
250.559
250.157
250.189
250.627
251.921
253.069
253.59
253.664
253.314
251.892
250.32
249.246
248.581
248.222
248.081
248.067
248.368
250.606
259.028
279.434
295.162
318.886
329.986
353.74
348.431
348.425
348.408
348.349
348.178
347.755
346.838
345.097
342.249
338.252
333.363
327.975
322.463
317.004
311.702
306.561
301.61
296.982
291.979
288.726
283.089
279.956
277.213
272.72
268.591
266.431
265.018
262.631
259.213
256.149
254.544
254.253
254.366
254.31
253.376
251.279
250.074
249.724
249.744
250.223
251.584
252.769
253.307
253.372
252.986
251.513
249.948
248.884
248.23
247.891
247.759
247.744
247.998
249.903
257.338
276.993
293.065
317.126
328.513
352.791
348.431
348.425
348.408
348.35
348.18
347.758
346.845
345.109
342.268
338.276
333.39
328.004
322.494
317.038
311.744
306.613
301.665
297.059
292.044
288.858
283.234
279.992
277.37
273.012
268.796
266.504
265.135
262.938
259.643
256.527
254.8
254.43
254.547
254.499
253.759
251.821
250.551
250.09
250.106
250.493
251.743
252.947
253.506
253.603
253.284
251.878
250.179
249.008
248.28
247.883
247.721
247.682
247.811
249.022
254.268
271.382
287.186
311.424
323.08
348.421
348.431
348.425
348.408
348.35
348.181
347.762
346.855
345.129
342.304
338.333
333.467
328.099
322.6
317.152
311.86
306.726
301.782
297.16
292.158
288.92
283.274
280.145
277.415
272.919
268.773
266.6
265.193
262.82
259.399
256.3
254.646
254.332
254.442
254.406
253.515
251.385
250.11
249.734
249.742
250.179
251.503
252.727
253.293
253.37
252.989
251.484
249.813
248.673
247.968
247.594
247.444
247.408
247.515
248.516
252.95
268.722
284.639
309.44
321.342
347.222
348.431
348.426
348.408
348.35
348.182
347.765
346.861
345.141
342.323
338.357
333.494
328.127
322.631
317.185
311.898
306.774
301.832
297.229
292.222
289.037
283.4
280.183
277.554
273.17
268.955
266.68
265.305
263.076
259.753
256.621
254.887
254.518
254.629
254.577
253.798
251.804
250.504
250.025
250.04
250.421
251.682
252.895
253.438
253.531
253.184
251.688
249.917
248.701
247.946
247.53
247.353
247.299
247.352
248.007
251.152
264.389
279.48
304.382
316.462
343.217
348.431
348.426
348.408
348.351
348.183
347.769
346.87
345.16
342.356
338.408
333.565
328.215
322.729
317.291
312.007
306.881
301.943
297.324
292.332
289.095
283.445
280.337
277.598
273.085
268.946
266.786
265.373
262.975
259.537
256.43
254.766
254.442
254.551
254.505
253.6
251.426
250.122
249.74
249.74
250.16
251.475
252.718
253.291
253.367
252.962
251.373
249.612
248.412
247.672
247.275
247.105
247.052
247.098
247.677
250.495
262.909
277.762
302.895
315.075
342.143
348.431
348.426
348.408
348.351
348.185
347.772
346.876
345.172
342.374
338.432
333.592
328.242
322.759
317.322
312.042
306.924
301.989
297.385
292.393
289.199
283.555
280.371
277.722
273.306
269.106
266.859
265.473
263.197
259.839
256.705
254.98
254.619
254.721
254.669
253.83
251.767
250.453
249.974
249.986
250.363
251.649
252.869
253.394
253.481
253.11
251.516
249.678
248.427
247.66
247.245
247.064
247.003
247.028
247.473
249.734
260.737
274.85
299.805
312.018
339.444
348.431
348.426
348.408
348.352
348.186
347.775
346.884
345.188
342.404
338.478
333.656
328.323
322.85
317.421
312.145
307.025
302.095
297.475
292.5
289.252
283.605
280.529
277.764
273.224
269.111
266.981
265.551
263.106
259.642
256.544
254.894
254.571
254.679
254.614
253.654
251.432
250.12
249.747
249.743
250.161
251.487
252.741
253.309
253.377
252.939
251.266
249.466
248.245
247.5
247.103
246.931
246.874
246.895
247.286
249.296
259.493
273.588
298.914
311.372
339.22
348.431
348.426
348.408
348.352
348.187
347.778
346.89
345.2
342.422
338.502
333.683
328.35
322.878
317.45
312.177
307.064
302.137
297.529
292.559
289.344
283.699
280.563
277.873
273.415
269.253
267.052
265.644
263.295
259.892
256.775
255.086
254.743
254.83
254.763
253.835
251.699
250.393
249.931
249.945
250.328
251.657
252.882
253.395
253.478
253.098
251.473
249.612
248.327
247.512
247.045
246.815
246.721
246.71
246.926
248.241
256.07
269.086
294.603
307.538
336.662
348.431
348.426
348.408
348.352
348.188
347.781
346.897
345.215
342.449
338.544
333.741
328.424
322.963
317.543
312.274
307.16
302.238
297.613
292.668
289.386
283.757
280.731
277.905
273.334
269.279
267.196
265.727
263.207
259.714
256.644
255.033
254.721
254.827
254.74
253.699
251.419
250.111
249.753
249.744
250.152
251.487
252.796
253.403
253.501
253.155
251.612
249.668
248.266
247.329
246.743
246.415
246.26
246.202
246.264
246.863
251.414
262.467
288.343
302.405
333.634
348.431
348.426
348.409
348.353
348.189
347.783
346.903
345.226
342.466
338.567
333.768
328.45
322.99
317.57
312.304
307.195
302.278
297.653
292.745
289.437
283.848
280.813
277.968
273.451
269.433
267.334
265.837
263.321
259.855
256.819
255.24
254.943
255.022
254.922
253.844
251.611
250.31
249.87
249.881
250.222
251.54
252.922
253.591
253.783
253.639
252.549
250.369
248.657
247.49
246.761
246.357
246.167
246.093
246.114
246.415
249.061
256.538
278.881
293.237
326.132
348.431
348.426
348.409
348.353
348.19
347.786
346.909
345.239
342.491
338.606
333.821
328.519
323.068
317.657
312.396
307.283
302.393
297.651
293.117
288.9
284.665
280.721
277.46
273.835
270.022
267.251
265.273
263.117
260.216
257.245
255.338
254.762
254.746
254.599
253.704
251.645
250.342
249.941
249.898
250.098
250.936
252.436
253.407
253.8
253.839
253.568
252.177
250.226
248.863
248.042
247.624
247.448
247.38
247.394
247.593
249.813
256.065
275.71
289.107
320.896
348.431
348.426
348.409
348.353
348.191
347.789
346.915
345.25
342.507
338.628
333.847
328.544
323.094
317.682
312.424
307.312
302.453
297.577
293.542
288.177
285.634
280.605
276.591
274.383
271.183
267.09
264.179
262.554
261.081
258.86
256.223
254.282
253.44
253.289
253.315
253.047
251.886
250.851
250.565
250.52
250.589
251.052
252.112
252.941
253.326
253.404
253.232
252.343
251.258
250.568
250.197
250.028
249.954
249.962
250.116
252.241
258.005
275.969
288.271
317.969
348.431
348.426
348.409
348.353
348.192
347.791
346.921
345.262
342.53
338.663
333.896
328.608
323.168
317.764
312.509
307.397
302.546
297.647
293.663
288.183
285.68
280.906
276.403
274.26
271.516
267.334
263.904
262.189
261.072
259.214
256.552
254.209
253.004
252.735
252.87
252.91
252.441
251.297
250.671
250.515
250.486
250.674
251.451
252.357
252.846
253.003
252.964
252.571
251.904
251.441
251.166
251.019
250.935
250.941
251.117
253.774
260.375
279.015
290.721
318.821
348.431
348.426
348.409
348.354
348.193
347.793
346.926
345.272
342.546
338.685
333.921
328.632
323.192
317.787
312.535
307.426
302.578
297.678
293.723
288.23
285.724
280.998
276.433
274.283
271.685
267.525
263.898
262.106
261.138
259.493
256.917
254.436
252.951
252.582
252.708
252.882
252.727
251.784
250.97
250.635
250.615
250.748
251.312
252.117
252.597
252.783
252.788
252.633
252.215
251.848
251.597
251.445
251.347
251.347
251.531
254.367
261.412
280.675
292.275
319.73
348.431
348.426
348.409
348.354
348.193
347.796
346.932
345.284
342.566
338.717
333.966
328.691
323.26
317.864
312.616
307.508
302.664
297.759
293.804
288.292
285.788
281.132
276.468
274.263
271.763
267.65
263.922
262.04
261.095
259.519
256.95
254.409
252.903
252.49
252.605
252.752
252.597
251.72
250.895
250.609
250.549
250.666
251.219
251.998
252.477
252.684
252.704
252.611
252.299
251.977
251.748
251.605
251.508
251.511
251.712
254.643
262.109
282.203
293.911
321.236
348.431
348.426
348.409
348.354
348.194
347.798
346.937
345.293
342.581
338.738
333.99
328.714
323.284
317.885
312.639
307.535
302.691
297.792
293.846
288.346
285.837
281.154
276.533
274.344
271.844
267.73
263.973
262.069
261.163
259.669
257.16
254.575
252.916
252.448
252.547
252.775
252.735
252.018
251.08
250.644
250.602
250.692
251.103
251.865
252.382
252.637
252.69
252.659
252.46
252.125
251.871
251.712
251.61
251.617
251.825
254.771
262.44
282.955
294.622
321.776
348.431
348.426
348.409
348.355
348.195
347.8
346.942
345.304
342.601
338.767
334.032
328.768
323.347
317.958
312.715
307.612
302.772
297.875
293.913
288.419
285.911
281.236
276.601
274.396
271.876
267.768
264.035
262.129
261.189
259.647
257.093
254.503
252.911
252.463
252.567
252.748
252.669
251.915
250.953
250.571
250.486
250.573
251.033
251.826
252.369
252.651
252.717
252.694
252.502
252.165
251.912
251.758
251.643
251.649
251.874
254.794
262.652
283.79
295.602
322.7
348.431
348.426
348.409
348.355
348.196
347.802
346.946
345.313
342.615
338.787
334.054
328.79
323.369
317.978
312.736
307.636
302.796
297.904
293.947
288.47
285.958
281.234
276.667
274.496
271.925
267.787
264.082
262.216
261.288
259.739
257.186
254.586
252.944
252.492
252.597
252.825
252.782
252.048
251.032
250.552
250.502
250.593
250.991
251.786
252.358
252.667
252.748
252.735
252.562
252.201
251.926
251.761
251.645
251.649
251.884
254.805
262.653
283.93
295.929
323.237
348.431
348.426
348.409
348.355
348.197
347.804
346.951
345.323
342.632
338.815
334.093
328.841
323.429
318.046
312.808
307.71
302.873
297.984
294.012
288.542
286.029
281.315
276.737
274.548
271.964
267.832
264.147
262.281
261.322
259.728
257.133
254.529
252.949
252.53
252.642
252.82
252.736
251.95
250.913
250.489
250.4
250.487
250.948
251.788
252.385
252.701
252.777
252.753
252.528
252.126
251.838
251.663
251.542
251.546
251.773
254.658
262.464
283.825
295.992
323.61
348.431
348.426
348.409
348.355
348.197
347.806
346.955
345.331
342.646
338.833
334.114
328.862
323.449
318.064
312.827
307.731
302.894
298.011
294.036
288.593
286.075
281.289
276.808
274.653
271.985
267.814
264.19
262.388
261.426
259.785
257.164
254.567
252.98
252.573
252.694
252.907
252.836
252.021
250.942
250.438
250.384
250.485
250.922
251.781
252.39
252.703
252.775
252.749
252.516
252.094
251.802
251.643
251.541
251.546
251.744
254.401
261.769
282.659
294.986
323.056
348.431
348.426
348.409
348.355
348.198
347.808
346.96
345.34
342.662
338.859
334.151
328.91
323.505
318.128
312.895
307.802
302.967
298.088
294.098
288.667
286.145
281.354
276.892
274.725
272.012
267.839
264.27
262.499
261.489
259.758
257.074
254.497
253.017
252.678
252.811
252.959
252.804
251.848
250.795
250.379
250.305
250.423
250.989
251.877
252.459
252.732
252.776
252.723
252.431
252.039
251.776
251.636
251.546
251.552
251.722
254.166
261.149
281.575
293.842
321.931
348.431
348.426
348.409
348.356
348.199
347.81
346.964
345.348
342.675
338.875
334.17
328.929
323.524
318.144
312.913
307.82
302.985
298.111
294.117
288.712
286.184
281.325
276.956
274.816
272.02
267.81
264.306
262.602
261.582
259.786
257.066
254.511
253.057
252.735
252.881
253.042
252.869
251.833
250.783
250.325
250.288
250.444
251.047
251.92
252.462
252.691
252.714
252.634
252.326
251.982
251.736
251.595
251.509
251.514
251.662
253.923
260.616
280.792
293.095
321.036
348.431
348.426
348.409
348.356
348.199
347.812
346.968
345.357
342.69
338.9
334.204
328.973
323.576
318.205
312.977
307.889
303.055
298.186
294.179
288.785
286.252
281.393
277.041
274.888
272.052
267.842
264.393
262.721
261.652
259.762
256.98
254.458
253.116
252.868
253.021
253.115
252.809
251.617
250.648
250.301
250.26
250.457
251.196
252.04
252.513
252.687
252.681
252.506
252.141
251.843
251.619
251.474
251.379
251.368
251.484
253.503
259.801
279.737
292.263
320.402
348.431
348.426
348.409
348.356
348.2
347.813
346.972
345.364
342.702
338.915
334.223
328.991
323.594
318.22
312.992
307.904
303.07
298.204
294.196
288.821
286.283
281.371
277.09
274.96
272.058
267.816
264.418
262.803
261.723
259.773
256.963
254.471
253.153
252.913
253.074
253.171
252.828
251.576
250.633
250.255
250.243
250.493
251.263
252.069
252.506
252.657
252.635
252.393
251.956
251.608
251.344
251.167
251.05
251.019
251.105
252.933
258.859
278.453
291.182
319.68
348.431
348.426
348.41
348.356
348.201
347.815
346.976
345.372
342.716
338.938
334.255
329.033
323.643
318.277
313.054
307.969
303.138
298.276
294.258
288.891
286.349
281.444
277.17
275.028
272.1
267.862
264.506
262.909
261.788
259.766
256.915
254.45
253.218
253.033
253.193
253.239
252.766
251.425
250.548
250.252
250.236
250.505
251.348
252.159
252.583
252.722
252.682
252.343
251.784
251.366
251.08
250.907
250.797
250.762
250.824
252.469
258.007
277.167
290.028
318.902
348.431
348.426
348.41
348.356
348.201
347.816
346.979
345.378
342.727
338.953
334.272
329.05
323.659
318.291
313.067
307.982
303.151
298.291
294.271
288.922
286.374
281.419
277.213
275.084
272.096
267.837
264.526
262.969
261.834
259.77
256.906
254.463
253.233
253.044
253.212
253.271
252.798
251.438
250.541
250.189
250.185
250.475
251.324
252.169
252.616
252.759
252.715
252.343
251.748
251.316
251.029
250.861
250.754
250.717
250.76
252.237
257.342
275.797
288.64
317.753
348.431
348.426
348.41
348.357
348.202
347.818
346.983
345.386
342.741
338.974
334.302
329.089
323.706
318.345
313.125
308.044
303.216
298.36
294.334
288.987
286.439
281.504
277.284
275.142
272.156
267.909
264.609
263.042
261.886
259.804
256.924
254.474
253.276
253.116
253.282
253.317
252.8
251.4
250.505
250.193
250.174
250.447
251.327
252.205
252.671
252.82
252.776
252.389
251.77
251.325
251.034
250.868
250.761
250.723
250.758
252.125
256.938
274.87
287.619
316.712
348.431
348.426
348.41
348.357
348.202
347.819
346.986
345.392
342.751
338.988
334.317
329.105
323.72
318.357
313.137
308.055
303.226
298.371
294.344
289.012
286.456
281.481
277.316
275.182
272.151
267.888
264.616
263.073
261.912
259.81
256.924
254.482
253.27
253.096
253.272
253.324
252.828
251.429
250.503
250.135
250.126
250.416
251.29
252.187
252.668
252.823
252.78
252.396
251.782
251.348
251.069
250.909
250.804
250.765
250.794
252.077
256.651
274.137
286.814
315.903
348.431
348.426
348.41
348.357
348.203
347.821
346.99
345.4
342.764
339.008
334.346
329.142
323.765
318.408
313.193
308.114
303.289
298.439
294.405
289.08
286.522
281.556
277.396
275.248
272.206
267.956
264.704
263.159
261.975
259.845
256.943
254.501
253.325
253.182
253.349
253.377
252.832
251.39
250.477
250.147
250.131
250.416
251.323
252.23
252.709
252.86
252.811
252.412
251.808
251.385
251.111
250.952
250.844
250.804
250.829
252.084
256.566
273.82
286.387
315.325
348.431
348.426
348.41
348.357
348.203
347.822
346.992
345.405
342.772
339.02
334.36
329.156
323.778
318.419
313.203
308.123
303.297
298.448
294.408
289.104
286.533
281.521
277.431
275.286
272.18
267.916
264.714
263.204
261.996
259.817
256.901
254.49
253.329
253.182
253.362
253.392
252.815
251.356
250.445
250.09
250.084
250.407
251.337
252.238
252.706
252.845
252.783
252.357
251.771
251.364
251.097
250.937
250.825
250.787
250.813
252.081
256.591
273.851
286.342
315.128
348.431
348.426
348.41
348.357
348.204
347.824
346.996
345.412
342.785
339.04
334.387
329.191
323.819
318.467
313.256
308.18
303.357
298.515
294.465
289.176
286.599
281.584
277.525
275.365
272.221
267.97
264.82
263.326
262.072
259.829
256.891
254.512
253.42
253.317
253.485
253.476
252.783
251.276
250.41
250.104
250.107
250.459
251.442
252.319
252.759
252.879
252.799
252.335
251.741
251.32
251.029
250.846
250.72
250.684
250.71
252.021
256.647
274.082
286.505
315.139
348.431
348.426
348.41
348.357
348.204
347.825
346.998
345.417
342.793
339.051
334.4
329.203
323.831
318.477
313.264
308.187
303.362
298.521
294.466
289.195
286.605
281.546
277.556
275.397
272.181
267.918
264.832
263.378
262.083
259.769
256.816
254.489
253.437
253.334
253.513
253.487
252.696
251.185
250.353
250.051
250.065
250.483
251.5
252.348
252.762
252.864
252.766
252.253
251.613
251.141
250.795
250.574
250.432
250.396
250.426
251.804
256.634
274.479
286.928
315.395
348.431
348.426
348.41
348.358
348.205
347.826
347.002
345.424
342.805
339.069
334.426
329.237
323.871
318.523
313.315
308.241
303.421
298.584
294.526
289.26
286.671
281.623
277.636
275.47
272.241
267.986
264.932
263.488
262.158
259.797
256.831
254.533
253.537
253.47
253.634
253.567
252.658
251.142
250.347
250.079
250.106
250.546
251.595
252.442
252.852
252.95
252.842
252.27
251.507
250.922
250.505
250.258
250.114
250.082
250.123
251.594
256.642
274.874
287.391
315.87
348.431
348.426
348.41
348.358
348.205
347.827
347.004
345.428
342.812
339.079
334.437
329.248
323.881
318.531
313.321
308.247
303.424
298.585
294.528
289.267
286.672
281.598
277.642
275.482
272.216
267.949
264.922
263.498
262.149
259.754
256.783
254.509
253.518
253.442
253.617
253.545
252.6
251.087
250.302
250.025
250.052
250.511
251.587
252.472
252.906
253.011
252.897
252.276
251.426
250.798
250.378
250.146
250.014
249.983
250.034
251.586
256.822
275.313
287.816
316.279
348.431
348.426
348.41
348.358
348.206
347.828
347.007
345.435
342.824
339.097
334.462
329.28
323.919
318.575
313.37
308.299
303.482
298.646
294.593
289.325
286.738
281.691
277.706
275.543
272.302
268.045
265.006
263.567
262.219
259.835
256.864
254.576
253.588
253.529
253.694
253.611
252.656
251.134
250.345
250.07
250.098
250.537
251.633
252.558
253.012
253.122
253.008
252.361
251.454
250.799
250.374
250.148
250.015
249.978
250.036
251.612
256.927
275.632
288.164
316.587
348.431
348.426
348.41
348.358
348.206
347.829
347.009
345.439
342.83
339.106
334.472
329.29
323.929
318.582
313.376
308.304
303.485
298.645
294.593
289.333
286.735
281.663
277.719
275.551
272.276
268.014
264.993
263.566
262.217
259.825
256.85
254.559
253.555
253.486
253.668
253.607
252.702
251.168
250.355
250.055
250.077
250.513
251.61
252.551
253.016
253.133
253.028
252.395
251.475
250.82
250.403
250.182
250.044
250.003
250.053
251.601
256.9
275.74
288.378
316.889
348.431
348.426
348.41
348.358
348.206
347.831
347.012
345.445
342.842
339.124
334.498
329.324
323.969
318.63
313.43
308.363
303.55
298.72
294.655
289.424
286.812
281.751
277.819
275.646
272.379
268.126
265.095
263.659
262.327
259.96
256.98
254.649
253.622
253.561
253.742
253.698
252.864
251.295
250.423
250.092
250.103
250.487
251.544
252.507
253.001
253.14
253.066
252.51
251.578
250.901
250.468
250.231
250.081
250.033
250.08
251.472
256.551
275.369
288.18
317.042
348.431
348.426
348.41
348.358
348.207
347.833
347.017
345.454
342.857
339.144
334.522
329.348
323.991
318.646
313.44
308.373
303.545
298.723
294.639
289.43
286.797
281.69
277.785
275.63
272.337
268.04
264.978
263.55
262.255
259.91
256.912
254.521
253.403
253.3
253.507
253.5
252.778
251.19
250.249
249.858
249.85
250.205
251.232
252.281
252.862
253.058
253.033
252.624
251.706
250.996
250.537
250.26
250.098
250.017
250.124
251.022
257.126
270.419
292.951
307.875
348.431
348.426
348.41
348.358
348.206
347.83
347.011
345.441
342.834
339.11
334.477
329.298
323.94
318.599
313.398
308.327
303.517
298.676
294.625
289.354
286.763
281.763
277.704
275.541
272.399
268.147
264.982
263.467
262.223
259.998
257.043
254.605
253.469
253.38
253.563
253.558
252.922
251.4
250.452
250.087
250.056
250.364
251.359
252.47
253.123
253.365
253.37
253.041
252.09
251.251
250.686
250.333
250.148
250.056
250.18
251.129
257.741
270.626
293.469
307.479
348.431
348.426
348.41
348.359
348.207
347.833
347.016
345.453
342.855
339.143
334.521
329.349
323.993
318.65
313.444
308.377
303.552
298.715
294.669
289.398
286.801
281.757
277.73
275.581
272.402
268.117
264.943
263.447
262.227
260.003
257.031
254.545
253.342
253.234
253.442
253.461
252.891
251.355
250.318
249.868
249.85
250.131
251.063
252.225
252.948
253.235
253.257
252.978
252.066
251.192
250.593
250.203
250.005
249.912
250.024
250.927
257.229
270.27
292.719
307.49
348.431
348.426
348.41
348.358
348.207
347.831
347.012
345.443
342.836
339.111
334.477
329.295
323.936
318.594
313.393
308.319
303.514
298.668
294.625
289.345
286.759
281.771
277.686
275.527
272.416
268.162
264.96
263.421
262.206
260.027
257.083
254.609
253.429
253.325
253.514
253.521
252.959
251.47
250.461
250.036
250.004
250.293
251.248
252.416
253.13
253.411
253.438
253.159
252.223
251.297
250.663
250.251
250.043
249.942
250.032
250.778
256.383
268.824
290.761
305.989
348.431
348.426
348.41
348.359
348.208
347.833
347.016
345.452
342.854
339.14
334.52
329.349
323.995
318.654
313.449
308.382
303.559
298.712
294.689
289.384
286.8
281.797
277.71
275.556
272.43
268.157
264.94
263.416
262.218
260.035
257.075
254.558
253.335
253.233
253.444
253.463
252.918
251.407
250.352
249.904
249.879
250.144
251.052
252.255
253.02
253.331
253.369
253.126
252.23
251.283
250.619
250.184
249.959
249.849
249.92
250.578
255.694
267.776
289.382
304.474
348.431
348.426
348.41
348.359
348.207
347.832
347.014
345.445
342.838
339.112
334.476
329.292
323.932
318.588
313.387
308.311
303.51
298.658
294.626
289.336
286.754
281.783
277.666
275.512
272.434
268.175
264.938
263.38
262.19
260.048
257.112
254.609
253.394
253.277
253.47
253.484
252.971
251.519
250.471
250.002
249.975
250.252
251.176
252.371
253.116
253.425
253.468
253.227
252.335
251.359
250.678
250.236
249.994
249.892
249.951
250.57
255.494
267.415
288.584
303.644
348.431
348.426
348.41
348.359
348.208
347.833
347.016
345.452
342.852
339.138
334.517
329.348
323.997
318.657
313.453
308.387
303.566
298.709
294.709
289.372
286.798
281.833
277.694
275.531
272.457
268.197
264.939
263.385
262.208
260.07
257.125
254.577
253.329
253.224
253.433
253.461
252.952
251.473
250.394
249.935
249.904
250.157
251.034
252.246
253.032
253.368
253.422
253.211
252.365
251.386
250.69
250.236
249.982
249.86
249.904
250.426
254.834
266.194
287.584
302.692
348.431
348.426
348.41
348.359
348.208
347.833
347.015
345.447
342.84
339.114
334.477
329.29
323.929
318.583
313.382
308.303
303.505
298.648
294.629
289.32
286.748
281.808
277.635
275.481
272.466
268.21
264.907
263.311
262.161
260.091
257.177
254.622
253.338
253.198
253.388
253.428
253.001
251.627
250.523
250.007
249.972
250.226
251.098
252.292
253.061
253.397
253.45
253.24
252.408
251.423
250.723
250.268
250.005
249.881
249.898
250.289
254.023
264.292
285.437
300.719
348.431
348.426
348.41
348.359
348.208
347.834
347.017
345.451
342.851
339.135
334.514
329.346
323.997
318.661
313.458
308.393
303.574
298.707
294.728
289.362
286.795
281.872
277.675
275.502
272.492
268.245
264.931
263.34
262.194
260.118
257.195
254.609
253.319
253.202
253.408
253.448
252.985
251.549
250.444
249.968
249.933
250.177
251.028
252.232
253.021
253.368
253.427
253.228
252.407
251.412
250.701
250.23
249.961
249.823
249.834
250.181
253.671
263.622
284.518
299.937
348.431
348.426
348.41
348.359
348.208
347.834
347.016
345.449
342.843
339.116
334.478
329.289
323.926
318.577
313.376
308.293
303.5
298.636
294.631
289.307
286.74
281.829
277.611
275.453
272.49
268.239
264.883
263.256
262.137
260.126
257.234
254.634
253.295
253.135
253.322
253.384
253.018
251.718
250.576
250.023
249.978
250.222
251.068
252.251
253.021
253.35
253.409
253.202
252.385
251.397
250.687
250.228
249.965
249.83
249.843
250.245
254.027
264.583
285.59
300.821
348.431
348.426
348.41
348.359
348.209
347.834
347.017
345.452
342.85
339.132
334.509
329.343
323.996
318.663
313.462
308.399
303.583
298.707
294.745
289.356
286.792
281.902
277.66
275.481
272.522
268.282
264.923
263.308
262.191
260.161
257.252
254.638
253.319
253.192
253.395
253.439
252.994
251.586
250.476
250
249.965
250.22
251.085
252.261
253.018
253.343
253.391
253.163
252.304
251.327
250.63
250.175
249.919
249.776
249.783
250.153
253.753
264.051
284.647
300.663
348.431
348.426