/*--------------------------------*- C++ -*----------------------------------*\
| =========                 |                                                 |
| \\      /  F ield         | OpenFOAM: The Open Source CFD Toolbox           |
|  \\    /   O peration     | Version:  5.x                                   |
|   \\  /    A nd           | Web:      www.OpenFOAM.org                      |
|    \\/     M anipulation  |                                                 |
\*---------------------------------------------------------------------------*/
/*   Windows 32 and 64 bit porting by blueCAPE: http://www.bluecape.com.pt   *\
|  Based on Windows porting (2.0.x v4) by Symscape: http://www.symscape.com   |
\*---------------------------------------------------------------------------*/
FoamFile
{
    version     2.0;
    format      ascii;
    class       volVectorField;
    location    "0.008";
    object      U;
}
// * * * * * * * * * * * * * * * * * * * * * * * * * * * * * * * * * * * * * //

dimensions      [0 1 -1 0 0 0 0];

internalField   nonuniform List<vector> 
10000
(
(0.00397844 7.70319e-006 0)
(0.0194228 8.20459e-005 4.34769e-021)
(0.0724834 0.000480846 4.46477e-021)
(0.248086 0.00207922 -1.83574e-020)
(0.74769 0.00731269 2.82555e-020)
(1.98524 0.0211765 -1.43516e-022)
(4.65774 0.0522059 -1.99335e-020)
(9.68835 0.110445 0)
(17.834 0.206482 0)
(29.1927 0.333462 0)
(43.0699 0.482066 -4.11733e-020)
(58.3231 0.633179 2.57628e-021)
(74.0343 0.785701 4.46175e-020)
(89.6498 0.924733 0)
(104.965 1.06607 0)
(119.896 1.19549 0)
(134.408 1.31983 0)
(148.442 1.452 -4.42874e-020)
(162.003 1.55792 9.25273e-020)
(174.998 1.70703 -4.77901e-020)
(187.505 1.81753 4.61497e-020)
(199.426 1.92107 -4.92655e-020)
(210.679 2.04474 0)
(221.313 2.13538 0)
(231.35 2.19304 0)
(240.667 2.24325 0)
(249.133 2.34277 0)
(256.754 2.45542 0)
(263.601 2.52419 -1.05538e-019)
(269.687 2.56078 1.10827e-019)
(274.977 2.56515 0)
(279.346 2.52147 0)
(282.738 2.4769 0)
(285.35 2.60889 0)
(287.417 2.51284 -1.22626e-019)
(288.989 2.50475 2.52244e-019)
(290.098 2.47002 -2.59092e-019)
(290.875 2.40884 1.33376e-019)
(291.38 2.25375 -1.37409e-019)
(291.622 2.2024 1.422e-019)
(291.742 2.13963 -1.46387e-019)
(291.877 2.06373 1.50562e-019)
(292.065 1.86978 0)
(292.377 1.81709 0)
(292.854 1.74444 -1.60586e-019)
(293.51 1.64472 1.6403e-019)
(294.355 1.53358 0)
(295.385 1.42869 0)
(296.588 1.30995 0)
(297.949 1.16719 1.81586e-019)
(299.457 1.03242 -1.86644e-019)
(301.112 0.908527 0)
(302.915 0.821573 0)
(304.824 0.737861 2.06112e-019)
(306.632 0.56842 -2.20365e-019)
(308.511 0.487207 0)
(310.57 0.441514 0)
(312.633 0.504607 2.88784e-019)
(314.698 0.604608 -3.22139e-022)
(316.5 1.03085 -3.4234e-019)
(0.00394596 -2.91333e-005 2.18905e-021)
(0.0192039 -0.000164716 -2.24967e-021)
(0.0714479 -0.000676748 0)
(0.244136 -0.00250982 0)
(0.735107 -0.00798263 0)
(1.95123 -0.021712 0)
(4.57899 -0.0513275 2.03296e-020)
(9.53285 -0.106475 -2.11759e-020)
(17.5713 -0.194691 -2.09089e-020)
(28.809 -0.309897 2.21623e-020)
(42.5761 -0.445477 0)
(57.7461 -0.585156 -4.3036e-020)
(73.4028 -0.728754 4.61894e-020)
(88.9861 -0.859498 -4.39011e-020)
(104.286 -0.992821 4.71027e-020)
(119.214 -1.11511 0)
(133.736 -1.22849 0)
(147.794 -1.36653 0)
(161.387 -1.43846 0)
(174.431 -1.6173 0)
(186.999 -1.69951 0)
(198.98 -1.79317 0)
(210.305 -1.92024 0)
(221.039 -2.01117 0)
(231.186 -2.06609 -5.08752e-020)
(240.608 -2.11191 5.39478e-020)
(249.183 -2.20393 -5.27209e-020)
(256.934 -2.30944 5.52075e-020)
(263.94 -2.38765 0)
(270.201 -2.43506 0)
(275.66 -2.44096 0)
(280.188 -2.43711 0)
(283.745 -2.39638 1.21279e-019)
(286.49 -2.39194 -1.24871e-019)
(288.694 -2.39663 0)
(290.435 -2.43042 0)
(291.7 -2.37065 0)
(292.61 -2.28975 1.37329e-019)
(293.251 -2.25681 -1.42223e-019)
(293.616 -2.11034 0)
(293.799 -2.04374 -1.50931e-019)
(293.939 -2.04644 3.1021e-019)
(294.104 -1.94282 -1.58868e-019)
(294.339 -1.7768 0)
(294.638 -1.79748 -1.65328e-019)
(295.03 -1.79749 3.38518e-019)
(295.529 -1.75341 -3.4718e-019)
(296.125 -1.67335 1.78222e-019)
(296.808 -1.58796 0)
(297.571 -1.51832 0)
(298.411 -1.45415 0)
(299.338 -1.39312 0)
(300.373 -1.32385 0)
(301.516 -1.24718 0)
(302.551 -1.19724 -2.33795e-019)
(303.612 -0.995771 2.5815e-019)
(304.78 -0.807792 -2.8009e-019)
(305.929 -0.455817 3.10872e-019)
(307.057 -0.374188 0)
(307.815 0.0898633 0)
(0.00394338 -1.88661e-005 2.26503e-021)
(0.019188 -4.02747e-005 2.32718e-021)
(0.0713825 9.43558e-005 -4.78431e-021)
(0.243936 0.000946533 0)
(0.734654 0.00448791 1.00735e-020)
(1.95048 0.0152124 -1.0386e-020)
(4.57828 0.0413896 0)
(9.53317 0.0922234 0)
(17.5748 0.176428 0)
(28.8174 0.289841 0)
(42.5884 0.423912 0)
(57.7572 0.56132 0)
(73.4055 0.699951 -4.49698e-020)
(88.9713 0.827076 4.82747e-020)
(104.244 0.956928 0)
(119.138 1.07596 -4.6418e-020)
(133.613 1.19601 2.77905e-021)
(147.628 1.2997 9.77437e-020)
(161.137 1.43956 -5.08233e-020)
(174.155 1.52803 0)
(186.62 1.66619 0)
(198.511 1.76864 0)
(209.811 1.86831 5.09527e-020)
(220.465 1.94803 -5.39309e-020)
(230.471 2.00469 0)
(239.789 2.06966 0)
(248.327 2.16203 0)
(256.041 2.26768 0)
(262.947 2.32485 0)
(269.068 2.34899 0)
(274.407 2.36357 0)
(278.872 2.27631 0)
(282.391 2.36313 0)
(285.116 2.45198 0)
(287.271 2.32485 1.3167e-019)
(288.932 2.28808 -1.35597e-019)
(290.126 2.30257 1.3846e-019)
(290.959 2.209 -1.42761e-019)
(291.529 2.02663 1.4658e-019)
(291.824 2.05288 -1.51629e-019)
(291.942 1.9927 0)
(292.044 1.83898 -1.61072e-019)
(292.147 1.7601 3.3124e-019)
(292.254 1.67372 -3.6196e-023)
(292.421 1.55475 -1.74033e-019)
(292.679 1.36686 -1.77865e-019)
(293.007 1.19527 1.82104e-019)
(293.386 1.03844 1.86669e-019)
(293.807 0.887384 -1.91582e-019)
(294.267 0.738248 0)
(294.775 0.570347 2.02068e-019)
(295.347 0.40549 -2.07754e-019)
(296.011 0.281298 0)
(296.78 0.228705 -2.23229e-019)
(297.44 -0.00695637 2.40725e-019)
(298.114 0.151607 0)
(298.92 0.249006 2.85962e-019)
(299.706 0.722773 -3.16473e-019)
(300.554 0.833279 0)
(301.18 1.07118 0)
(0.00391714 -4.6431e-005 2.34355e-021)
(0.0190116 -0.000227056 2.40786e-021)
(0.0705405 -0.000805893 4.94612e-021)
(0.240696 -0.00271019 -1.01745e-020)
(0.72421 -0.00804575 0)
(1.9219 -0.0207703 0)
(4.51127 -0.0474475 0)
(9.39938 -0.0971213 0)
(17.3462 -0.176508 0)
(28.4799 -0.280866 2.26228e-020)
(42.1499 -0.400111 -1.30561e-021)
(57.2411 -0.523736 -2.44671e-020)
(72.8369 -0.65368 0)
(88.371 -0.77163 -4.70366e-020)
(103.628 -0.892883 5.04598e-020)
(118.517 -1.00369 0)
(132.998 -1.10543 0)
(147.04 -1.22959 0)
(160.562 -1.29918 -4.97347e-020)
(173.66 -1.45898 5.33228e-020)
(186.141 -1.54287 0)
(198.074 -1.62274 5.18421e-020)
(209.494 -1.73613 -5.53536e-020)
(220.237 -1.82407 0)
(230.275 -1.87722 0)
(239.665 -1.92413 0)
(248.365 -1.98897 -5.66028e-020)
(256.268 -2.08345 1.86861e-021)
(263.32 -2.17371 6.05049e-020)
(269.527 -2.23269 0)
(274.927 -2.23386 0)
(279.507 -2.25451 -6.28178e-020)
(283.219 -2.18766 6.56068e-020)
(286.118 -2.06515 0)
(288.457 -2.21402 0)
(290.302 -2.25614 0)
(291.603 -2.18484 0)
(292.508 -2.08422 0)
(293.172 -2.13585 0)
(293.564 -1.99045 0)
(293.73 -1.8961 0)
(293.845 -1.88652 0)
(293.955 -1.83568 1.70353e-019)
(294.058 -1.73493 -1.75252e-019)
(294.125 -1.63986 0)
(294.187 -1.61325 0)
(294.256 -1.58184 0)
(294.309 -1.52656 -1.93963e-019)
(294.339 -1.44636 1.99021e-019)
(294.351 -1.36057 0)
(294.36 -1.29776 0)
(294.401 -1.26227 0)
(294.517 -1.21871 0)
(294.711 -1.15587 0)
(294.83 -1.26848 0)
(294.924 -0.916828 2.84613e-019)
(295.135 -0.737207 -3.08708e-019)
(295.318 -0.323048 -3.39203e-019)
(295.515 -0.184286 3.59398e-019)
(295.498 -0.0558631 -3.91666e-019)
(0.00390927 -4.18958e-005 0)
(0.0189669 -0.000147677 4.9831e-021)
(0.0703608 -0.000256754 -2.08972e-024)
(0.24011 -8.84183e-005 -1.57773e-020)
(0.722669 0.00176228 1.08186e-020)
(1.91854 0.00934146 0)
(4.50518 0.0304098 -2.25231e-020)
(9.39008 0.0736065 2.34561e-020)
(17.3352 0.148103 0)
(28.4696 0.252482 0)
(42.1411 0.373172 0)
(57.2302 0.497347 -2.38524e-020)
(72.819 0.622794 4.96842e-020)
(88.3379 0.738318 -2.58543e-020)
(103.571 0.856866 -4.9189e-020)
(118.43 0.967359 5.27374e-020)
(132.87 1.07467 0)
(146.867 1.17931 0)
(160.328 1.29695 5.14842e-020)
(173.364 1.40402 -5.51935e-020)
(185.791 1.51353 0)
(197.651 1.60201 0)
(208.996 1.7052 0)
(219.676 1.7782 5.54513e-020)
(229.644 1.82982 -5.85158e-020)
(238.943 1.88764 -5.72529e-020)
(247.545 1.96889 6.07375e-020)
(255.37 2.0699 0)
(262.357 2.13901 -6.09719e-020)
(268.5 2.1686 6.35836e-020)
(273.838 2.18509 0)
(278.347 2.0781 0)
(281.982 2.14773 0)
(284.823 2.21401 -6.90431e-020)
(287.084 2.08168 7.15333e-020)
(288.857 2.19436 0)
(290.125 2.1285 0)
(290.971 2.00247 0)
(291.562 1.86954 0)
(291.887 1.91383 1.6127e-019)
(291.989 1.81411 -3.32746e-019)
(292.059 1.71001 1.71721e-019)
(292.122 1.65638 1.76811e-019)
(292.159 1.56988 -1.819e-019)
(292.2 1.38558 0)
(292.281 1.18909 0)
(292.393 1.02236 0)
(292.509 0.881444 0)
(292.612 0.746464 2.06331e-019)
(292.697 0.604511 -2.11859e-019)
(292.772 0.455162 0)
(292.867 0.31245 2.23655e-019)
(293.021 0.199247 -2.31143e-019)
(293.242 0.134185 -2.43473e-019)
(293.388 0.0660276 5.16353e-022)
(293.449 0.26528 2.95242e-019)
(293.556 0.353539 -3.18686e-019)
(293.607 0.799185 3.51048e-019)
(293.677 1.02966 3.70498e-019)
(293.56 1.00742 -8.08227e-019)
(0.00388731 -6.14839e-005 0)
(0.0188212 -0.00028114 0)
(0.0696654 -0.000919043 0)
(0.237422 -0.0028607 0)
(0.713938 -0.00806598 0)
(1.89443 -0.0197418 0)
(4.448 -0.0435122 2.33059e-020)
(9.27474 -0.0877799 -2.42677e-020)
(17.1359 -0.158477 0)
(28.172 -0.252196 0)
(41.7505 -0.361007 -2.44568e-020)
(56.7674 -0.469338 2.61998e-020)
(72.3058 -0.586522 0)
(87.7937 -0.691865 0)
(103.01 -0.801831 0)
(117.861 -0.900464 0)
(132.309 -0.993828 0)
(146.321 -1.10079 0)
(159.818 -1.18038 0)
(172.887 -1.30983 0)
(185.351 -1.39726 0)
(197.28 -1.46232 -5.55876e-020)
(208.68 -1.56566 5.92923e-020)
(219.408 -1.64481 0)
(229.463 -1.69176 0)
(238.889 -1.73712 0)
(247.613 -1.79589 6.06891e-020)
(255.524 -1.87856 -6.39114e-020)
(262.594 -1.96595 0)
(268.852 -2.02475 0)
(274.329 -2.01519 0)
(279.012 -2.02897 0)
(282.821 -1.96073 0)
(285.756 -1.86139 0)
(288.125 -2.06929 0)
(290.011 -2.0352 0)
(291.344 -1.99296 0)
(292.291 -1.91473 0)
(293.015 -1.91181 0)
(293.452 -1.76273 0)
(293.622 -1.76974 0)
(293.733 -1.71822 0)
(293.828 -1.65442 -1.82569e-019)
(293.891 -1.56029 1.87711e-019)
(293.911 -1.52273 0)
(293.936 -1.5056 0)
(293.976 -1.456 0)
(294.001 -1.39277 0)
(294.002 -1.31867 0)
(293.981 -1.24752 2.18194e-019)
(293.948 -1.18849 -2.24214e-019)
(293.934 -1.12075 0)
(293.978 -1.03146 0)
(294.089 -0.905184 0)
(294.141 -0.799102 0)
(294.081 -0.726033 0)
(294.094 -0.548401 0)
(294.015 -0.128403 0)
(293.822 0.14418 0)
(293.43 0.0446316 0)
(0.00387629 -6.09305e-005 0)
(0.0187589 -0.000236318 0)
(0.0694131 -0.000551758 0)
(0.236579 -0.000955318 0)
(0.711643 -0.000634386 0)
(1.88918 0.00410389 0)
(4.43788 0.0202519 0)
(9.25805 0.0560409 0)
(17.1135 0.120923 0)
(28.1469 0.216144 0)
(41.7252 0.328774 0)
(56.7395 0.440252 0)
(72.272 0.553558 0)
(87.7466 0.657687 0)
(102.942 0.765406 0)
(117.768 0.86706 0)
(132.177 0.961661 0)
(146.149 1.06348 0)
(159.588 1.16627 0)
(172.602 1.28822 0)
(185.02 1.37041 0)
(196.878 1.45412 0)
(208.213 1.55966 0)
(218.893 1.61934 0)
(228.881 1.66327 0)
(238.213 1.71442 0)
(246.844 1.78847 0)
(254.691 1.88262 0)
(261.712 1.95598 0)
(267.92 1.98869 0)
(273.342 2.00259 0)
(277.948 1.8843 0)
(281.686 1.94035 0)
(284.57 2.0003 0)
(286.866 1.937 -7.58873e-020)
(288.708 2.03203 7.80043e-020)
(290.032 1.96158 0)
(290.915 1.83531 0)
(291.554 1.69852 0)
(291.924 1.73433 0)
(292.04 1.63889 8.914e-020)
(292.118 1.55921 -9.20078e-020)
(292.185 1.5097 0)
(292.226 1.46707 0)
(292.274 1.28168 0)
(292.384 1.13523 0)
(292.556 1.00398 -1.04697e-019)
(292.761 0.859338 1.07276e-019)
(292.979 0.726326 0)
(293.196 0.590196 0)
(293.417 0.467686 0)
(293.662 0.369025 0)
(293.962 0.324576 0)
(294.326 0.370711 0)
(294.612 0.439428 0)
(294.79 0.329913 0)
(295.012 0.551197 0)
(295.116 0.624156 0)
(295.094 1.10027 0)
(294.857 1.25218 0)
(0.00385721 -7.47051e-005 -2.68483e-021)
(0.018635 -0.00032934 8.27689e-021)
(0.0688271 -0.00102462 -5.67103e-021)
(0.234314 -0.00299831 0)
(0.704267 -0.00813334 0)
(1.86869 -0.0188525 0)
(4.38885 -0.0399879 0)
(9.15829 -0.0791637 -2.53551e-020)
(16.9395 -0.141588 2.66185e-020)
(27.8842 -0.225006 2.5943e-020)
(41.3764 -0.323536 -2.76693e-020)
(56.3231 -0.421491 -2.64423e-020)
(71.8075 -0.526392 2.83656e-020)
(87.2519 -0.619518 0)
(102.43 -0.718893 2.72695e-020)
(117.247 -0.805487 -2.92285e-020)
(131.662 -0.889199 0)
(145.646 -0.977972 0)
(159.119 -1.06951 -5.70993e-020)
(172.163 -1.17244 3.1211e-021)
(184.61 -1.2631 6.15812e-020)
(196.529 -1.31592 0)
(207.916 -1.41159 0)
(218.636 -1.47903 6.13705e-020)
(228.701 -1.52198 -6.48357e-020)
(238.147 -1.56374 0)
(246.894 -1.61562 0)
(254.826 -1.68546 0)
(261.923 -1.76552 0)
(268.227 -1.82315 0)
(273.758 -1.81353 0)
(278.521 -1.8315 0)
(282.419 -1.74935 -7.4292e-020)
(285.4 -1.69972 7.73574e-020)
(287.806 -1.8823 -7.82433e-020)
(289.732 -1.82932 1.60322e-019)
(291.097 -1.80643 -8.22356e-020)
(292.079 -1.75189 0)
(292.851 -1.69445 -8.64593e-020)
(293.327 -1.58949 1.78386e-019)
(293.506 -1.64042 -9.21624e-020)
(293.628 -1.55832 0)
(293.74 -1.47148 9.77544e-020)
(293.816 -1.37597 -2.00941e-019)
(293.865 -1.39787 1.03079e-019)
(293.952 -1.38875 -1.05392e-019)
(294.076 -1.34759 1.07888e-019)
(294.215 -1.28878 0)
(294.357 -1.22408 0)
(294.497 -1.16846 0)
(294.64 -1.0997 -1.19618e-019)
(294.808 -1.02907 1.22966e-019)
(295.037 -0.931912 -1.26697e-019)
(295.341 -0.780099 1.32585e-019)
(295.567 -0.621479 0)
(295.706 -0.557564 0)
(295.914 -0.360207 0)
(296.042 -0.269591 0)
(296.017 0.239375 0)
(295.715 0.326297 0)
(0.00384453 -7.64428e-005 -2.77741e-021)
(0.0185632 -0.00030793 -2.85364e-021)
(0.0685331 -0.000792294 5.86658e-021)
(0.233314 -0.00166091 0)
(0.701485 -0.0026588 0)
(1.86216 -0.000391981 0)
(4.37585 0.0112118 0)
(9.13614 0.04015 -1.31154e-020)
(16.9084 0.0957357 4.03318e-020)
(27.8474 0.181787 -1.29304e-021)
(41.3383 0.286274 -1.53067e-021)
(56.2822 0.38958 -5.63763e-020)
(71.7616 0.491376 1.71823e-021)
(87.1944 0.584527 1.73156e-021)
(102.354 0.681938 2.99409e-020)
(117.149 0.7747 -2.8529e-020)
(131.53 0.857773 3.05522e-020)
(145.477 0.956952 -2.92162e-020)
(158.895 1.04248 3.11856e-020)
(171.889 1.18645 0)
(184.299 1.2361 0)
(196.151 1.31693 0)
(207.48 1.42829 0)
(218.161 1.47849 -6.3562e-020)
(228.165 1.50954 6.71427e-020)
(237.522 1.55244 0)
(246.179 1.61959 0)
(254.052 1.70878 0)
(261.11 1.78295 6.97856e-020)
(267.377 1.81388 -1.43885e-019)
(272.869 1.82254 1.60071e-021)
(277.559 1.71757 7.61457e-020)
(281.388 1.74828 0)
(284.318 1.79673 0)
(286.657 1.835 8.11497e-020)
(288.565 1.87952 -8.34227e-020)
(289.94 1.79573 -8.48858e-020)
(290.863 1.68197 8.74968e-020)
(291.54 1.587 0)
(291.942 1.57201 9.23729e-020)
(292.079 1.50106 -9.5508e-020)
(292.168 1.42017 0)
(292.235 1.37591 0)
(292.268 1.33048 1.04166e-019)
(292.31 1.20685 -1.06897e-019)
(292.438 1.06309 0)
(292.642 0.934317 0)
(292.896 0.817947 0)
(293.175 0.701071 1.1731e-019)
(293.468 0.566128 -1.20435e-019)
(293.773 0.453959 0)
(294.104 0.364571 0)
(294.491 0.3031 -1.30862e-019)
(294.957 0.296169 1.36489e-019)
(295.349 0.271453 0)
(295.633 0.371196 -1.62678e-019)
(295.964 0.656513 1.47376e-022)
(296.243 0.836297 3.90465e-019)
(296.377 1.23844 -2.07429e-019)
(296.245 1.43649 2.27141e-019)
(0.00382743 -8.62254e-005 0)
(0.018455 -0.000372208 0)
(0.0680289 -0.00112378 0)
(0.231374 -0.00313631 0)
(0.695174 -0.00826252 -1.27798e-020)
(1.84458 -0.0181834 1.3174e-020)
(4.33356 -0.037058 0)
(9.04948 -0.0715477 0)
(16.7559 -0.126308 0)
(27.615 -0.199823 0)
(41.0263 -0.288269 0)
(55.9066 -0.378042 0)
(71.3399 -0.472675 0)
(86.7435 -0.553912 0)
(101.886 -0.6433 0)
(116.67 -0.717939 0)
(131.056 -0.793813 0)
(145.014 -0.867126 0)
(158.464 -0.965071 0)
(171.485 -1.04969 0)
(183.914 -1.13887 0)
(195.824 -1.18093 0)
(207.2 -1.26407 0)
(217.913 -1.32741 0)
(227.983 -1.36396 0)
(237.446 -1.3996 0)
(246.214 -1.44657 0)
(254.17 -1.50259 0)
(261.295 -1.57294 0)
(267.637 -1.62945 0)
(273.213 -1.62829 0)
(278.043 -1.65138 0)
(282.024 -1.55958 0)
(285.064 -1.54294 8.18687e-020)
(287.505 -1.66082 -1.6825e-019)
(289.461 -1.63436 8.61006e-020)
(290.863 -1.6247 8.75943e-020)
(291.88 -1.57596 -9.02781e-020)
(292.689 -1.5333 0)
(293.195 -1.4791 0)
(293.38 -1.4913 0)
(293.496 -1.39974 0)
(293.602 -1.31756 0)
(293.663 -1.25826 0)
(293.689 -1.26253 0)
(293.763 -1.26276 0)
(293.889 -1.23957 1.1527e-019)
(294.042 -1.19542 -1.18101e-019)
(294.206 -1.13785 1.21107e-019)
(294.378 -1.08833 -1.2435e-019)
(294.562 -1.04567 0)
(294.768 -0.993472 0)
(295.034 -0.91646 0)
(295.386 -0.793746 0)
(295.694 -0.719384 0)
(295.929 -0.474974 -1.68543e-019)
(296.198 -0.0820344 1.83301e-019)
(296.426 0.0618197 0)
(296.534 0.380131 0)
(296.376 0.507097 0)
(0.00381405 -8.90362e-005 0)
(0.0183789 -0.000365292 0)
(0.0677151 -0.000985481 0)
(0.230292 -0.00222694 0)
(0.692112 -0.00432302 1.32198e-020)
(1.83725 -0.00417415 -1.36274e-020)
(4.31863 0.00337365 0)
(9.02349 0.0260982 0)
(16.7184 0.0728929 1.42173e-020)
(27.5693 0.149896 -1.50534e-020)
(40.9782 0.24611 -2.90073e-020)
(55.8558 0.343285 6.0352e-020)
(71.2854 0.435629 -3.14154e-020)
(86.6788 0.518167 0)
(101.806 0.605759 0)
(116.57 0.689636 0)
(130.925 0.762402 -3.09011e-020)
(144.848 0.859981 6.43622e-020)
(158.245 0.928718 -3.33902e-020)
(171.225 1.09674 0)
(183.623 1.10717 0)
(195.467 1.18999 0)
(206.794 1.30257 0)
(217.48 1.34735 0)
(227.491 1.3718 0)
(236.865 1.40319 0)
(245.549 1.46359 0)
(253.456 1.5463 -7.35291e-020)
(260.553 1.6177 7.69137e-020)
(266.868 1.64571 0)
(272.413 1.65361 0)
(277.173 1.57089 0)
(281.084 1.57057 0)
(284.071 1.59262 0)
(286.464 1.68398 0)
(288.433 1.72754 0)
(289.862 1.63496 0)
(290.823 1.51006 0)
(291.535 1.48055 -9.58997e-020)
(291.975 1.42094 9.89316e-020)
(292.141 1.38337 0)
(292.24 1.30136 0)
(292.303 1.26211 1.08433e-019)
(292.326 1.20479 -1.11486e-019)
(292.354 1.11642 0)
(292.47 0.984221 1.1683e-019)
(292.669 0.849351 -1.19403e-019)
(292.923 0.745315 0)
(293.205 0.633238 0)
(293.501 0.494123 0)
(293.81 0.35552 0)
(294.14 0.256932 -1.35735e-019)
(294.523 0.194835 1.39827e-019)
(294.983 0.191788 1.4544e-019)
(295.399 0.141654 -2.95989e-022)
(295.719 0.394038 -1.73545e-019)
(296.018 0.779977 1.87777e-019)
(296.284 1.03054 -2.07982e-019)
(296.45 1.36833 2.20558e-019)
(296.372 1.41127 -4.8462e-019)
(0.00379838 -9.61315e-005 0)
(0.0182822 -0.000409835 3.1589e-021)
(0.0672727 -0.00121546 -3.24667e-021)
(0.228601 -0.00327603 0)
(0.68664 -0.00844022 0)
(1.82202 -0.017753 0)
(4.28189 -0.034749 0)
(8.94781 -0.065034 0)
(16.5843 -0.112808 1.471e-020)
(27.3633 -0.1769 -1.55721e-020)
(40.6987 -0.255495 0)
(55.5164 -0.337055 0)
(70.9014 -0.422921 3.06134e-020)
(86.2665 -0.494364 -3.28403e-020)
(101.376 -0.574559 -3.12648e-020)
(116.128 -0.637358 1.8896e-021)
(130.487 -0.7064 3.38483e-020)
(144.42 -0.764635 0)
(157.85 -0.871596 3.27371e-020)
(170.85 -0.929818 -3.50701e-020)
(183.259 -1.02069 0)
(195.162 -1.05512 3.41506e-020)
(206.529 -1.1264 -7.12008e-020)
(217.236 -1.18557 3.67723e-020)
(227.308 -1.21969 -3.56723e-020)
(236.781 -1.24901 3.78516e-020)
(245.57 -1.28716 -7.45487e-020)
(253.554 -1.3283 2.50446e-021)
(260.706 -1.38851 7.9486e-020)
(267.08 -1.44086 0)
(272.694 -1.45297 0)
(277.58 -1.48922 0)
(281.637 -1.40046 -8.50983e-020)
(284.741 -1.39535 8.86776e-020)
(287.221 -1.4419 0)
(289.206 -1.44268 -9.15368e-020)
(290.645 -1.44618 9.42006e-020)
(291.702 -1.41997 -9.62877e-020)
(292.543 -1.3918 2.29872e-022)
(293.083 -1.37245 1.67557e-022)
(293.286 -1.34946 8.641e-023)
(293.409 -1.26248 4.36103e-023)
(293.524 -1.18335 1.12048e-019)
(293.588 -1.17245 -1.15099e-019)
(293.61 -1.1553 1.18104e-019)
(293.682 -1.15987 0)
(293.821 -1.14317 0)
(293.997 -1.10547 0)
(294.188 -1.05378 0)
(294.392 -1.03508 0)
(294.615 -1.01218 0)
(294.859 -0.9593 -1.4013e-019)
(295.153 -0.889102 2.88622e-019)
(295.527 -0.79882 -1.67913e-022)
(295.894 -0.774475 -1.61421e-019)
(296.194 -0.35511 0)
(296.442 0.0471726 0)
(296.64 0.550482 0)
(296.718 0.554196 0)
(296.582 0.663133 -2.50967e-019)
(0.0037849 -9.92563e-005 0)
(0.0182055 -0.000411107 -3.26741e-021)
(0.0669538 -0.00113942 1.0072e-020)
(0.227489 -0.00267689 -6.90234e-021)
(0.683448 -0.00566577 0)
(1.81425 -0.00731343 1.44809e-020)
(4.26578 -0.00329614 -2.97588e-020)
(8.91928 0.0138617 1.5381e-020)
(16.5423 0.0524878 1.52165e-020)
(27.311 0.120675 -1.61077e-020)
(40.6429 0.208557 -1.55252e-020)
(55.4581 0.299433 4.79756e-020)
(70.8409 0.383938 -6.52925e-020)
(86.1972 0.457866 3.39727e-020)
(101.293 0.536338 0)
(116.03 0.611332 0)
(130.359 0.674475 0)
(144.26 0.774015 -3.34997e-020)
(157.637 0.82706 3.5744e-020)
(170.604 1.01066 -3.44458e-020)
(182.989 0.987098 3.65392e-020)
(194.827 1.0708 3.53297e-020)
(206.152 1.18689 -3.7696e-020)
(216.842 1.22754 0)
(226.859 1.24611 0)
(236.245 1.271 0)
(244.955 1.32576 0)
(252.897 1.40169 0)
(260.031 1.46188 0)
(266.389 1.48636 -8.13911e-020)
(271.978 1.49379 8.51129e-020)
(276.8 1.44296 -8.55735e-020)
(280.786 1.41639 8.94782e-020)
(283.836 1.40087 0)
(286.282 1.52578 9.29713e-020)
(288.305 1.57391 -9.55886e-020)
(289.784 1.48033 9.71423e-020)
(290.782 1.38332 -1.00127e-019)
(291.528 1.39322 0)
(292.012 1.30204 -1.05612e-019)
(292.216 1.2615 1.02176e-022)
(292.333 1.19471 6.02386e-023)
(292.405 1.14585 1.16032e-019)
(292.445 1.09122 0)
(292.491 1.01854 0)
(292.626 0.884391 -1.25013e-019)
(292.859 0.764936 1.27656e-019)
(293.161 0.661197 0)
(293.5 0.537214 1.33825e-019)
(293.86 0.388551 -2.74658e-019)
(294.245 0.262289 4.20498e-023)
(294.652 0.175494 1.44921e-019)
(295.099 0.125666 0)
(295.613 0.120568 0)
(296.127 0.145466 1.63925e-019)
(296.54 0.567781 -3.64023e-019)
(296.868 0.918309 2.75368e-022)
(297.085 1.39794 4.38364e-019)
(297.192 1.22297 -2.33226e-019)
(297.148 1.621 0)
(0.00377033 -0.000104531 0)
(0.0181176 -0.00044232 -3.37955e-021)
(0.066559 -0.00129835 3.47344e-021)
(0.225993 -0.00341425 -7.13097e-021)
(0.678642 -0.00865172 7.3371e-021)
(1.80092 -0.017535 0)
(4.2336 -0.0330136 1.5287e-020)
(8.85279 -0.0596058 -3.14499e-020)
(16.4239 -0.101112 1.6306e-020)
(27.1279 -0.156325 1.59099e-020)
(40.392 -0.225316 -1.69577e-020)
(55.1508 -0.298637 0)
(70.4902 -0.376098 0)
(85.819 -0.440344 0)
(100.897 -0.511902 0)
(115.621 -0.563021 3.38449e-020)
(129.953 -0.626624 -7.04679e-020)
(143.863 -0.670735 7.12996e-020)
(157.275 -0.789727 -7.20303e-020)
(170.253 -0.812694 3.75478e-020)
(182.644 -0.91177 3.59419e-020)
(194.54 -0.939989 -3.83678e-020)
(205.899 -0.99534 0)
(216.601 -1.05345 0)
(226.673 -1.08355 0)
(236.155 -1.11208 0)
(244.964 -1.14214 0)
(252.973 -1.17024 0)
(260.152 -1.21307 4.13424e-020)
(266.555 -1.25912 -8.51971e-020)
(272.204 -1.28917 4.39859e-020)
(277.139 -1.34727 0)
(281.263 -1.25174 0)
(284.434 -1.23362 -9.37345e-020)
(286.954 -1.23162 9.04335e-022)
(288.963 -1.25103 7.15338e-022)
(290.441 -1.28083 5.16884e-022)
(291.54 -1.28267 3.59963e-022)
(292.409 -1.25554 1.0614e-019)
(292.98 -1.2615 -1.09051e-019)
(293.216 -1.23341 2.25544e-019)
(293.36 -1.14534 -1.1642e-019)
(293.501 -1.05977 0)
(293.594 -1.07592 0)
(293.644 -1.06717 1.26387e-019)
(293.755 -1.07105 -1.29113e-019)
(293.955 -1.04295 0)
(294.212 -1.00038 -1.34877e-019)
(294.498 -0.995613 2.76488e-019)
(294.817 -0.992177 -1.41866e-019)
(295.171 -0.969884 1.45653e-019)
(295.552 -0.931066 -1.49699e-019)
(295.979 -0.873705 -1.53904e-019)
(296.481 -0.779115 1.59456e-019)
(297.021 -0.670765 1.68458e-019)
(297.475 -0.203483 -1.86805e-019)
(297.826 0.570345 0)
(298.035 0.594427 0)
(298.153 0.627786 0)
(298.129 1.10723 0)
(0.0037571 -0.000107549 0)
(0.0180423 -0.000447667 0)
(0.0662446 -0.00126157 0)
(0.224887 -0.00303283 0)
(0.675428 -0.00674085 0)
(1.79299 -0.00988643 0)
(4.21691 -0.00889717 0)
(8.82281 0.00333118 0)
(16.3789 0.0344479 0)
(27.071 0.0941609 0)
(40.3307 0.173759 0)
(55.0872 0.258207 0)
(70.4258 0.335236 0)
(85.7472 0.403072 0)
(100.814 0.472952 0)
(115.524 0.539171 0)
(129.83 0.593655 0)
(143.709 0.696576 0)
(157.069 0.735274 0)
(170.023 0.927029 0)
(182.396 0.875497 0)
(194.228 0.959377 0)
(205.55 1.07648 -3.85377e-020)
(216.243 1.11612 4.07702e-020)
(226.266 1.12497 0)
(235.666 1.14472 0)
(244.399 1.19498 0)
(252.371 1.26903 0)
(259.538 1.32699 0)
(265.933 1.34709 0)
(271.564 1.34392 0)
(276.445 1.31916 0)
(280.504 1.27027 -4.71033e-020)
(283.614 1.21142 4.91255e-020)
(286.109 1.36783 0)
(288.177 1.4295 0)
(289.7 1.34257 0)
(290.738 1.2457 0)
(291.521 1.26561 0)
(292.053 1.17673 0)
(292.304 1.12474 0)
(292.451 1.07888 1.20445e-019)
(292.546 1.02629 -1.24089e-019)
(292.626 0.976874 0)
(292.721 0.891016 0)
(292.911 0.771078 0)
(293.218 0.671591 0)
(293.611 0.558664 -1.39575e-019)
(294.059 0.405205 1.4302e-019)
(294.55 0.253067 0)
(295.081 0.130604 0)
(295.642 0.0510629 0)
(296.243 0.0237448 0)
(296.905 0.0518957 0)
(297.609 0.137665 0)
(298.245 0.491445 0)
(298.663 1.36337 0)
(298.914 1.21553 0)
(299.169 1.52092 0)
(299.249 1.99884 0)
(0.00374346 -0.000111558 0)
(0.0179615 -0.000469891 0)
(0.0658875 -0.00137155 3.71423e-021)
(0.223545 -0.00354699 -3.81851e-021)
(0.671155 -0.00888485 0)
(1.7812 -0.0174826 0)
(4.1885 -0.031774 0)
(8.76402 -0.0551815 0)
(16.2739 -0.0911493 -1.68452e-020)
(26.9076 -0.138059 3.48507e-020)
(40.1049 -0.197726 -1.81434e-020)
(54.8083 -0.262756 0)
(70.1048 -0.332201 0)
(85.3995 -0.390402 0)
(100.448 -0.454706 0)
(115.144 -0.494414 -3.62264e-020)
(129.453 -0.553661 2.13346e-021)
(143.341 -0.586438 3.92129e-020)
(156.736 -0.715 0)
(169.692 -0.699273 0)
(182.066 -0.813673 3.84739e-020)
(193.959 -0.832098 -4.10702e-020)
(205.308 -0.871038 0)
(216.002 -0.927125 0)
(226.076 -0.957966 0)
(235.569 -0.985598 0)
(244.395 -1.00935 4.27083e-020)
(252.424 -1.0261 -1.44573e-021)
(259.625 -1.0586 -4.557e-020)
(266.057 -1.0971 0)
(271.744 -1.1367 0)
(276.724 -1.19597 0)
(280.907 -1.11424 0)
(284.144 -1.09535 5.0143e-020)
(286.703 -1.05587 -4.98568e-022)
(288.732 -1.05771 -1.05253e-019)
(290.246 -1.12697 5.3938e-020)
(291.387 -1.14193 0)
(292.285 -1.10274 5.66341e-020)
(292.889 -1.13868 -5.84177e-020)
(293.165 -1.12203 -1.20539e-019)
(293.339 -1.04571 1.24518e-019)
(293.514 -0.95988 0)
(293.647 -0.98333 0)
(293.743 -0.993785 0)
(293.915 -0.993838 0)
(294.198 -0.95129 0)
(294.555 -0.921278 0)
(294.966 -0.934905 -1.47707e-019)
(295.432 -0.950524 2.76019e-023)
(295.953 -0.949742 3.11251e-019)
(296.512 -0.933635 -4.872e-023)
(297.118 -0.884365 -1.64384e-019)
(297.797 -0.791304 0)
(298.538 -0.630485 0)
(299.26 -0.275517 -1.93435e-019)
(299.742 0.608146 2.10885e-019)
(300.034 0.585757 0)
(300.362 0.949553 2.50938e-019)
(300.487 1.46018 -2.78877e-019)
(0.00373069 -0.000114265 0)
(0.0178889 -0.000476809 0)
(0.0655834 -0.00135828 -3.84139e-021)
(0.222468 -0.00331393 1.18387e-020)
(0.667994 -0.00759863 -2.39425e-023)
(1.77331 -0.0119744 -1.66287e-020)
(4.17168 -0.0135582 1.70291e-020)
(8.73342 -0.00565959 -8.80058e-021)
(16.2274 0.0186319 0)
(26.8479 0.0702858 0)
(40.0398 0.141682 1.77814e-020)
(54.7411 0.219616 -1.90319e-020)
(70.038 0.28952 1.81375e-020)
(85.3266 0.352411 -1.94536e-020)
(100.366 0.415011 0)
(115.052 0.472639 0)
(129.336 0.519482 0)
(143.192 0.628213 0)
(156.538 0.648593 0)
(169.478 0.846263 -3.94726e-020)
(181.839 0.771645 4.18608e-020)
(193.668 0.855143 0)
(204.987 0.972039 0)
(215.679 1.00564 -4.17644e-020)
(225.709 1.00964 4.40936e-020)
(235.123 1.02604 0)
(243.879 1.0729 -4.41898e-020)
(251.875 1.14493 9.16897e-020)
(259.07 1.20213 -4.71936e-020)
(265.501 1.22131 0)
(271.173 1.20117 0)
(276.111 1.18349 -4.89708e-020)
(280.237 1.12898 5.12257e-020)
(283.406 1.06136 5.19039e-020)
(285.944 1.22129 -5.02496e-022)
(288.047 1.29871 -5.47173e-020)
(289.609 1.2139 5.55556e-020)
(290.689 1.10425 -2.13723e-022)
(291.508 1.13694 -1.35055e-022)
(292.085 1.05189 -1.10083e-022)
(292.385 0.98348 -1.24806e-019)
(292.564 0.95974 1.28839e-019)
(292.686 0.913558 -2.42413e-023)
(292.806 0.854403 -1.36365e-019)
(292.955 0.751803 6.99829e-020)
(293.207 0.649981 0)
(293.59 0.566181 -1.45835e-019)
(294.074 0.436446 2.98241e-019)
(294.63 0.269542 -1.52774e-019)
(295.25 0.105167 0)
(295.924 -0.0308629 1.60872e-019)
(296.636 -0.127842 -1.65308e-019)
(297.392 -0.156339 0)
(298.21 -0.110812 0)
(299.088 0.00905386 -1.81844e-019)
(299.964 0.389633 3.94054e-019)
(300.532 1.16947 -2.14207e-019)
(300.875 1.29364 0)
(301.332 1.69966 0)
(301.57 2.2182 0)
(0.00371787 -0.000117362 0)
(0.0178141 -0.000492906 0)
(0.0652572 -0.0014348 3.97281e-021)
(0.221252 -0.00367067 -4.08434e-021)
(0.664154 -0.0091238 8.37045e-021)
(1.76278 -0.0175512 -8.62746e-021)
(4.14638 -0.0309449 0)
(8.68108 -0.0516556 0)
(16.1337 -0.082766 1.80228e-020)
(26.7015 -0.121985 -1.90679e-020)
(39.8361 -0.17267 0)
(54.4874 -0.229367 1.8577e-020)
(69.7436 -0.291126 -1.99151e-020)
(85.0061 -0.343374 1.89627e-020)
(100.027 -0.401762 -2.03282e-020)
(114.698 -0.431133 0)
(128.985 -0.487381 0)
(142.851 -0.507216 3.97113e-020)
(156.23 -0.642108 -8.25142e-020)
(169.166 -0.59095 2.17695e-021)
(181.524 -0.723504 4.32933e-020)
(193.414 -0.731599 4.18881e-020)
(204.753 -0.754116 -4.46828e-020)
(215.439 -0.80986 0)
(225.516 -0.841898 0)
(235.019 -0.868913 4.46565e-020)
(243.86 -0.886726 -4.73798e-020)
(251.906 -0.89247 0)
(259.127 -0.915296 0)
(265.585 -0.951263 -4.81566e-020)
(271.308 -0.997927 9.9632e-020)
(276.332 -1.04489 -5.16095e-020)
(280.57 -0.975681 0)
(283.869 -1.01847 0)
(286.465 -0.900558 0)
(288.512 -0.881599 5.60844e-020)
(290.057 -0.980343 -3.10988e-022)
(291.24 -1.02418 -2.21742e-022)
(292.165 -0.981564 -6.0732e-020)
(292.798 -1.00522 0)
(293.113 -1.01547 -6.44565e-020)
(293.317 -0.947869 6.65913e-020)
(293.518 -0.868819 -6.85481e-020)
(293.682 -0.894256 1.40942e-019)
(293.817 -0.929386 -2.32433e-023)
(294.04 -0.919743 -3.87992e-024)
(294.385 -0.874976 -7.5325e-020)
(294.817 -0.866233 0)
(295.32 -0.89645 -7.88985e-020)
(295.895 -0.939443 1.53169e-023)
(296.536 -0.969377 8.31229e-020)
(297.224 -0.986719 0)
(297.964 -0.960711 0)
(298.776 -0.876643 1.80647e-019)
(299.672 -0.718726 -3.75559e-019)
(300.618 -0.281059 2.02843e-019)
(301.267 0.282867 0)
(301.667 0.665379 0)
(302.192 1.14987 -2.63126e-019)
(302.495 1.65676 2.15552e-022)
(0.00370566 -0.000119682 0)