/*--------------------------------*- C++ -*----------------------------------*\
| =========                 |                                                 |
| \\      /  F ield         | OpenFOAM: The Open Source CFD Toolbox           |
|  \\    /   O peration     | Version:  5.x                                   |
|   \\  /    A nd           | Web:      www.OpenFOAM.org                      |
|    \\/     M anipulation  |                                                 |
\*---------------------------------------------------------------------------*/
/*   Windows 32 and 64 bit porting by blueCAPE: http://www.bluecape.com.pt   *\
|  Based on Windows porting (2.0.x v4) by Symscape: http://www.symscape.com   |
\*---------------------------------------------------------------------------*/
FoamFile
{
    version     2.0;
    format      ascii;
    class       surfaceScalarField;
    location    "0.002";
    object      phi;
}
// * * * * * * * * * * * * * * * * * * * * * * * * * * * * * * * * * * * * * //

dimensions      [1 0 -1 0 0 0 0];

internalField   nonuniform List<scalar> 
1447
(
8.3844e-013
1.72501e-014
7.95808e-013
1.43358e-014
6.60805e-013
1.43358e-014
-7.10543e-015
1.04916e-014
5.04485e-013
1.37668e-014
3.97904e-013
9.95037e-015
4.05009e-013
1.14422e-014
9.45022e-013
1.07345e-014
-7.10543e-015
9.16628e-015
-5.11591e-013
5.48173e-015
-6.11067e-013
7.28584e-015
-9.52127e-013
6.84869e-015
-1.32871e-012
5.60663e-015
-1.21503e-012
5.64826e-015
-1.0445e-012
7.09155e-015
-9.59233e-013
4.0315e-015
-5.40012e-013
6.59889e-015
-5.32907e-013
8.24341e-015
-4.68958e-013
8.29892e-015
-2.70006e-013
7.02216e-015
2.84217e-014
7.02216e-015
4.40536e-013
8.22259e-015
2.34479e-013
7.07767e-015
3.33955e-013
7.86871e-015
8.52651e-013
9.20791e-015
7.03437e-013
8.08381e-015
5.82645e-013
8.32667e-015
6.82121e-013
5.54418e-015
8.88178e-013
9.78384e-015
5.40012e-013
2.86576e-015
4.76064e-013
4.43395e-015
1.7053e-013
5.3707e-015
6.39488e-013
2.09555e-015
6.75016e-013
7.75768e-015
1.63425e-013
-1.90126e-015
1.35003e-013
6.35603e-015
-6.6791e-013
-3.94129e-015
-6.75016e-013
3.01842e-015
-5.25802e-013
-2.7825e-015
-4.47642e-013
2.77556e-016
-5.25802e-013
-2.158e-015
-7.10543e-013
-4.85723e-016
-2.13163e-013
-3.19189e-015
0
-1.38778e-017
6.39488e-014
-4.82947e-015
3.48166e-013
1.24206e-015
5.11591e-013
-4.58661e-015
1.08002e-012
-1.77636e-015
1.42819e-012
-3.60822e-016
7.81597e-013
-2.76862e-015
2.34479e-013
-3.94129e-015
2.4869e-013
-8.43769e-015
4.1922e-013
-3.01148e-015
6.03961e-013
-1.05055e-014
6.82121e-013
-6.77236e-015
1.27898e-013
-9.97119e-015
-1.56319e-013
-1.49256e-014
5.7554e-013
-1.36002e-014
1.11555e-012
-7.95891e-015
7.03437e-013
-1.00336e-014
2.70006e-013
-1.02626e-014
4.54747e-013
-1.21916e-014
9.9476e-014
-1.0339e-014
-2.62901e-013
-1.34892e-014
3.05533e-013
-1.06651e-014
-2.77112e-013
-1.06928e-014
-1.77636e-013
-1.37668e-014
5.96856e-013
-1.1921e-014
5.54223e-013
-9.4369e-015
1.84741e-013
-1.00406e-014
-1.42109e-013
-1.30382e-014
-7.03437e-013
-1.51198e-014
-4.61853e-013
-1.10953e-014
2.84217e-014
-1.30521e-014
-3.48166e-013
-1.28508e-014
-7.10543e-013
-1.39472e-014
-4.90274e-013
-1.11994e-014
-8.31335e-013
-8.14626e-015
-8.3844e-013
-1.1352e-014
-3.19744e-013
-8.36137e-015
-6.53699e-013
-4.97519e-015
-2.41585e-013
-6.5295e-015
-4.76064e-013
-1.35308e-015
-6.03961e-013
-7.04298e-015
-5.18696e-013
-2.55351e-015
-4.90274e-013
-3.08087e-015
-6.60805e-013
-9.02056e-017
-1.14397e-012
-4.96825e-015
-9.166e-013
-5.47479e-015
-9.87654e-013
-2.90046e-015
-4.9738e-013
-1.99146e-015
-2.41585e-013
-2.08167e-017
-5.7554e-013
1.9082e-015
-5.32907e-013
9.15934e-016
-3.41061e-013
1.17267e-015
-5.96856e-013
-7.28584e-016
-4.61853e-013
3.29597e-015
-6.96332e-013
1.13798e-015
-8.66862e-013
1.17267e-015
-9.59233e-013
1.45717e-016
-4.47642e-013
1.8735e-015
-2.20268e-013
4.55885e-015
-3.76588e-013
5.27356e-015
-1.27898e-013
8.13932e-015
-7.10543e-015
3.6221e-015
-1.13687e-013
3.84415e-015
-1.49214e-013
4.03844e-015
-1.27898e-013
1.85962e-015
8.52651e-014
7.27196e-015
3.2685e-013
5.47479e-015
6.32383e-013
5.92582e-015
7.17648e-013
6.07153e-015
8.02913e-013
5.70377e-015
1.48503e-012
1.08732e-014
2.089e-012
8.69443e-015
2.0961e-012
1.52933e-014
1.56319e-012
7.84095e-015
1.25766e-012
4.76702e-015
1.14397e-012
2.47025e-015
1.22213e-012
1.72778e-015
9.30811e-013
-4.57967e-016
1.52056e-012
5.55112e-016
1.19371e-012
8.8124e-016
8.2423e-013
-4.28824e-015
5.61329e-013
-3.11556e-015
6.39488e-013
-1.10537e-014
6.6791e-013
-4.14252e-015
1.56319e-013
-1.35239e-014
1.91847e-013
-1.54113e-014
3.12639e-013
-1.31561e-014
2.27374e-013
-1.11092e-014
9.9476e-014
-1.92624e-014
-2.20268e-013
-1.03945e-014
-2.20268e-013
-2.61249e-014
-3.90799e-013
-1.36974e-014
-5.11591e-013
-2.50702e-014
3.41061e-013
-1.37806e-014
2.81375e-012
-1.81105e-014
1.17879e-011
2.294e-014
4.27036e-011
1.25594e-013
1.52738e-010
4.80303e-013
5.33809e-010
1.77015e-012
1.8244e-009
6.24245e-012
6.11337e-009
2.14775e-011
2.00822e-008
7.24286e-011
6.46395e-008
2.39348e-010
2.0374e-007
7.74731e-010
6.28451e-007
2.45498e-009
1.89576e-006
7.61087e-009
5.58849e-006
2.30677e-008
1.60864e-005
6.83016e-008
4.51762e-005
1.97405e-007
0.000123664
5.56418e-007
0.000329633
1.52809e-006
0.000854662
4.08462e-006
0.00215287
1.06149e-005
0.00526179
2.67854e-005
0.0124597
6.55401e-005
0.0285392
0.000155267
0.0631183
0.000355529
0.134519
0.000785373
0.275668
0.00167022
0.541915
0.00341164
1.01933
0.00667653
1.82992
0.0124848
3.12783
0.0222494
5.08077
0.037701
7.83489
0.0606374
11.4713
0.0925005
15.9722
0.133944
21.2139
0.184569
26.9935
0.242978
33.0743
0.307143
39.2312
0.37488
45.2801
0.4442
51.0897
0.513462
56.5813
0.58144
61.7256
0.647382
66.5225
0.710951
70.9794
0.772055
75.1065
0.830677
78.9143
0.886815
82.4121
0.940458
85.6112
0.991572
88.5104
1.04015
91.1478
1.08602
93.4563
1.12957
95.588
1.16959
97.3617
1.20864
98.9005
1.24226
100.36
1.27605
101.318
1.30554
102.175
1.3323
103.011
1.35551
103.43
1.38135
103.555
1.39671
103.717
1.41351
103.823
1.43089
103.606
1.44202
103.085
1.45068
102.529
1.45945
102.052
1.46576
101.523
1.46893
100.749
1.47187
99.6815
1.47423
98.5938
1.47339
97.7178
1.46974
96.9787
1.46565
96.0666
1.46345
94.9837
1.46125
93.8605
1.45672
92.8172
1.44799
91.9293
1.43877
91.1504
1.43052
90.3995
1.4237
89.6396
1.4453
88.7281
1.46114
87.5726
1.52238
86.4782
1.59359
85.4983
1.59021
84.6025
1.59898
83.9085
1.59116
83.1136
1.53759
82.1239
1.60086
80.3677
1.50029
75.0927
1.32674
67.912
1.30469
61.5925
1.27577
56.5542
1.17318
52.8763
1.03652
50.3487
0.945404
48.6652
0.893787
47.5447
0.864382
46.7581
0.851365
46.1459
0.849463
45.6027
0.854729
45.1508
0.864264
44.736
0.876871
44.2617
0.890133
43.7463
0.90269
43.1941
0.914693
42.6201
0.92597
42.0313
0.936437
41.4234
0.945969
40.7893
0.954248
40.1044
0.960619
39.3176
0.963445
38.337
0.95948
37.007
0.942498
34.6905
0.896277
27.2556
0.76457
11.7827
0.447324
3.80347
0.155255
0.948014
0.0417967
0.210142
0.0101333
0.0452539
0.00222438
0.00969465
0.000473999
0.00207434
0.000100423
0.000443305
2.13188e-005
9.45556e-005
4.53306e-006
2.01128e-005
9.64058e-007
4.26279e-006
2.04769e-007
8.99468e-007
4.33798e-008
1.88779e-007
9.1541e-009
3.93698e-008
1.92172e-009
8.14898e-009
4.00788e-010
1.67169e-009
8.29107e-011
3.39268e-010
1.69832e-011
6.79607e-011
3.43581e-012
1.34186e-011
6.84706e-013
2.62634e-012
1.3421e-013
5.27578e-013
2.77018e-014
1.25677e-013
4.79651e-015
3.5083e-014
4.18068e-015
1.33227e-014
-7.75421e-016
2.35367e-014
2.96985e-015
-1.9984e-014
-1.21604e-015
-1.33227e-015
8.08381e-016
3.10862e-014
-4.02456e-016
2.70894e-014
3.88665e-015
1.37668e-014
-1.18048e-015
1.95399e-014
2.45984e-015
-5.77316e-015
5.66387e-016
-2.4869e-014
-1.67141e-015
-3.41949e-014
-1.47972e-015
-1.55431e-014
-2.97505e-016
-4.44089e-016
-1.17441e-015
9.32587e-015
3.71231e-016
5.77316e-015
-1.07206e-015
1.82077e-014
2.27422e-015
2.04281e-014
-1.64192e-015
3.73035e-014
1.68615e-015
1.46549e-014
-8.95117e-016
1.64313e-014
-2.7929e-016
3.90799e-014
1.96024e-015
3.95239e-014
2.17448e-015
4.13003e-014
1.98713e-015
4.21885e-014
1.51528e-015
4.30767e-014
-4.15466e-016
3.04878e-015
-4.30589e-012
-3.6664e-012
-3.55271e-012
-2.91323e-012
-2.17426e-012
-2.2311e-012
-1.73372e-012
-2.60059e-012
-2.28795e-012
-1.4353e-012
-1.54898e-012
-5.68434e-013
-9.23706e-013
-1.09424e-012
-1.8332e-012
-1.60583e-012
-2.25953e-012
-1.52056e-012
-1.66267e-012
-2.43006e-012
-1.64846e-012
-8.95284e-013
4.40536e-013
5.96856e-013
-5.96856e-013
-7.38964e-013
-5.25802e-013
-6.39488e-013
-9.9476e-013
-9.66338e-013
-5.11591e-013
-8.10019e-013
-1.27898e-012
-1.03739e-012
-1.33582e-012
-7.81597e-013
-9.09495e-013
-1.42109e-012
-9.09495e-013
-9.09495e-013
-2.84217e-014
-7.24754e-013
-1.56319e-012
-2.40163e-012
-1.76215e-012
4.26326e-014
-9.09495e-013
-9.37916e-013
-2.98428e-013
-1.32161e-012
-9.37916e-013
-2.84217e-013
-6.11067e-013
-7.24754e-013
-8.2423e-013
-6.96332e-013
-7.24754e-013
1.42109e-014
-5.68434e-014
1.06581e-012
1.44951e-012
1.42109e-012
2.68585e-012
2.16005e-012
1.20792e-012
9.80549e-013
6.11067e-013
1.02318e-012
1.40687e-012
7.81597e-013
4.12115e-013
7.38964e-013
1.42109e-012
1.35003e-012
8.52651e-013
1.86162e-012
2.81375e-012
2.28795e-012
2.60059e-012
3.11218e-012
3.15481e-012
3.41061e-012
3.90799e-012
3.31113e-012
3.18323e-012
2.92744e-012
2.04636e-012
1.42109e-012
1.4353e-012
9.52127e-013
1.77636e-012
1.7053e-012
2.10321e-012
2.68585e-012
1.93268e-012
2.70006e-012
2.89901e-012
3.02691e-012
1.77636e-012
1.36424e-012
2.18847e-012
1.9611e-012
7.53175e-013
-1.12266e-012
-7.53175e-013
4.54747e-013
1.42109e-014
-1.08002e-012
-6.53699e-013
-8.81073e-013
-2.70006e-013
-4.68958e-013
-4.26326e-013
-2.55795e-013
-4.54747e-013
-4.54747e-013
-5.68434e-013
-1.25056e-012
-1.1795e-012
-7.67386e-013
-3.2685e-013
-1.10845e-012
-1.59162e-012
-4.40536e-013
-1.4353e-012
-9.37916e-013
-4.9738e-013
2.70006e-013
4.68958e-013
1.42109e-012
4.40536e-013
-6.53699e-013
4.83169e-013
1.29319e-012
1.32161e-012
1.0516e-012
7.53175e-013
5.96856e-013
-2.55795e-013
-3.22586e-012
-1.35287e-011
-5.17417e-011
-1.85338e-010
-6.3055e-010
-2.0863e-009
-6.74896e-009
-2.13711e-008
-6.62129e-008
-2.00588e-007
-5.9369e-007
-1.71521e-006
-4.83209e-006
-1.32594e-005
-3.53942e-005
-9.17753e-005
-0.000230768
-0.000561593
-0.00131957
-0.00298491
-0.00647587
-0.0134083
-0.026311
-0.0484192
-0.0821046
-0.123932
-0.152064
-0.100207
0.147324
0.766785
2.17381
4.91423
9.66932
17.112
27.6757
41.2741
57.2658
74.8702
93.4165
112.39
131.417
150.231
168.646
186.531
203.797
220.38
236.24
251.346
265.688
279.241
292.046
304.001
315.352
325.65
335.554
344.628
352.473
360.612
367.596
373.224
379.101
384.834
389.053
392.22
395.674
399.403
402.211
403.497
404.293
405.832
407.924
409.141
409.493
409.364
409.388
410.071
411.211
412.194
413.138
413.506
413.611
413.988
414.644
415.41
416.232
416.711
415.968
411.895
396.125
368.07
341.362
318.595
300.828
287.901
279.041
273.455
270.343
268.975
268.699
268.971
269.45
270.269
270.981
271.504
271.861
272.013
271.956
271.604
270.683
268.652
264.432
255.785
233.406
152.233
54.0517
13.7011
2.60073
0.44948
0.0764429
0.0129853
0.00220745
0.000375645
6.39939e-005
1.09136e-005
1.86317e-006
3.18388e-007
5.4454e-008
9.31967e-009
1.59582e-009
2.7338e-010
4.69047e-011
8.19433e-012
1.55786e-012
5.57776e-013
6.19949e-013
4.06786e-013
3.96128e-013
9.23706e-014
1.24345e-013
2.54019e-013
2.85993e-013
8.88178e-014
2.30926e-014
-3.55271e-015
-7.4607e-014
5.50671e-014
-1.7053e-013
-3.49942e-013
-4.20997e-013
-3.64153e-013
-3.01981e-013
-7.28306e-014
8.88178e-014
-7.81597e-014
-8.88178e-015
-3.19744e-014
-7.63833e-014
6.03961e-014
1.65201e-013
3.44613e-013
2.62901e-013
2.84217e-013
2.55795e-013
2.84217e-013
3.12639e-013
3.69482e-013
3.97904e-013
3.69482e-013
3.12639e-013
3.69482e-013
3.41061e-013
3.69482e-013
3.97904e-013
3.69482e-013
4.54747e-013
4.54747e-013
4.83169e-013
5.11591e-013
5.11591e-013
5.11591e-013
4.83169e-013
5.11591e-013
5.40012e-013
5.68434e-013
5.40012e-013
5.68434e-013
5.40012e-013
6.25278e-013
5.96856e-013
6.53699e-013
6.82121e-013
6.82121e-013
6.82121e-013
6.25278e-013
6.82121e-013
6.82121e-013
6.53699e-013
6.82121e-013
6.25278e-013
6.53699e-013
5.96856e-013
6.53699e-013
6.53699e-013
6.25278e-013
6.25278e-013
5.68434e-013
5.11591e-013
5.11591e-013
4.83169e-013
4.54747e-013
4.83169e-013
4.83169e-013
4.26326e-013
4.54747e-013
4.26326e-013
4.26326e-013
3.97904e-013
3.97904e-013
4.26326e-013
3.97904e-013
3.41061e-013
3.69482e-013
3.97904e-013
3.41061e-013
2.55795e-013
2.84217e-013
2.84217e-013
3.12639e-013
3.12639e-013
3.12639e-013
2.27374e-013
2.55795e-013
2.84217e-013
1.98952e-013
1.98952e-013
2.55795e-013
2.55795e-013
2.84217e-013
2.27374e-013
2.27374e-013
1.98952e-013
1.98952e-013
2.27374e-013
2.27374e-013
2.27374e-013
2.27374e-013
1.98952e-013
2.27374e-013
2.55795e-013
2.27374e-013
1.98952e-013
2.27374e-013
2.55795e-013
2.84217e-013
3.12639e-013
3.41061e-013
3.12639e-013
3.12639e-013
2.55795e-013
3.69482e-013
3.41061e-013
7.72715e-014
1.03433e-015
5.59552e-014
2.05305e-015
6.39488e-014
2.92951e-015
4.79616e-014
7.46798e-016
2.39808e-014
1.18829e-016
3.4639e-014
-7.84529e-016
1.95399e-014
1.42161e-015
-2.66454e-015
-3.85542e-016
-3.55271e-015
-3.54751e-016
0
9.03357e-016
-1.68754e-014
-1.67097e-015
-1.5099e-014
2.87097e-016
-2.22045e-014
-1.82276e-015
-3.28626e-014
1.30104e-017
-4.70735e-014
-9.84022e-016
-4.79616e-014
-1.0391e-015
-7.01661e-014
-1.09157e-015
-5.24025e-014
-1.35569e-015
-2.75335e-014
-7.0343e-016
-9.76996e-015
-6.21898e-016
1.33227e-014
-8.06213e-016
1.33227e-014
-9.54098e-018
9.76996e-015
2.14238e-016
-2.13163e-014
-6.00214e-016
-5.41789e-014
-7.49834e-016
-5.32907e-014
-6.75675e-016
-4.9738e-014
-1.76074e-016
-3.28626e-014
-1.80932e-015
-1.24345e-014
-5.96745e-016
-1.24345e-014
-9.01189e-016
8.88178e-015
-7.89299e-016
2.39808e-014
-4.3238e-016
-1.68754e-014
-2.52836e-016
-3.81917e-014
-1.35872e-015
-1.59872e-014
-3.9465e-016
-3.37508e-014
-1.36436e-015
-2.13163e-014
-2.8276e-016
-1.86517e-014
-4.85289e-016
-2.75335e-014
-8.19223e-016
-4.52971e-014
-7.95371e-016
-3.55271e-014
-9.4369e-016
-3.01981e-014
-7.5287e-016
-3.90799e-014
-6.50955e-016
-1.33227e-014
-5.10009e-016
-1.33227e-014
-2.67581e-016
9.76996e-015
-3.57353e-016
1.77636e-014
-3.89445e-016
5.06262e-014
-2.84061e-016
3.90799e-014
-7.28584e-017
3.4639e-014
-5.63351e-016
3.10862e-014
4.88758e-016
1.68754e-014
-8.50882e-016
-3.55271e-014
-3.59521e-016
-2.4869e-014
9.97466e-018
-1.77636e-014
-3.75568e-016
-1.06581e-014
-1.34441e-016
-6.21725e-015
-2.78423e-016
-2.66454e-015
-2.44596e-016
-2.57572e-014
1.56125e-016
-2.66454e-015
2.29851e-017
1.06581e-014
-5.50775e-017
2.84217e-014
7.09936e-016
3.4639e-014
2.78857e-016
1.86517e-014
-2.62811e-016
6.30607e-014
8.85143e-016
7.90479e-014
4.60135e-016
5.59552e-014
1.84748e-016
9.9476e-014
5.9848e-016
9.59233e-014
2.40259e-016
6.66134e-014
9.97466e-018
1.77636e-014
-6.29705e-016
-2.4869e-014
5.26922e-016
-5.59552e-014
-3.60822e-016
-3.64153e-014
-6.74807e-016
-3.9968e-014
-3.97685e-016
-3.19744e-014
-5.80265e-016
-2.75335e-014
1.86483e-016
1.15463e-014
-6.67869e-016
1.42109e-014
5.03503e-016
-2.30926e-014
-8.2356e-016
4.44089e-015
1.52222e-016
1.95399e-014
-2.94903e-017
-1.59872e-014
-2.0383e-016
-1.5099e-014
-2.64545e-016
8.88178e-016
-2.72785e-016
-3.64153e-014
1.02782e-016
-3.73035e-014
-6.21031e-016
-5.86198e-014
3.43475e-016
-6.4837e-014
-3.9465e-016
-6.39488e-014
-3.03577e-018
-4.35207e-014
-2.58474e-016
-3.90799e-014
-3.85542e-016
-4.26326e-014
-2.51535e-016
-3.55271e-014
-4.37584e-016
-3.90799e-014
-3.2873e-016
-6.39488e-014
-4.51028e-016
-3.64153e-014
-3.33934e-016
-4.35207e-014
-1.60896e-016
-2.22045e-014
-6.53991e-016
-1.15463e-014
-3.56052e-016
-1.33227e-014
-8.80372e-016
1.77636e-014
-7.06466e-016
1.59872e-014
-7.52003e-016
-2.30926e-014
-7.44196e-016
-2.39808e-014
-7.29451e-016
-2.93099e-014
-7.65447e-016
-5.50671e-014
-5.68556e-016
-4.35207e-014
-5.02202e-016
-4.79616e-014
-8.79071e-016
-1.24345e-014
-2.54571e-016
-3.64153e-014
-8.84709e-016
-9.76996e-015
-4.51462e-016
-1.77636e-014
-6.89553e-016
-2.66454e-014
-5.13912e-016
-1.77636e-015
-3.06179e-016
3.90799e-014
-6.22766e-016
-8.88178e-015
-1.34007e-016
3.19744e-014
-4.90059e-016
4.44089e-014
-3.60389e-016
1.04805e-013
-1.09288e-016
1.33227e-013
-5.55545e-016
7.28306e-014
-2.75387e-016
4.08562e-014
-6.33174e-016
2.66454e-014
-3.50414e-016
2.4869e-014
-3.27863e-016
6.03961e-014
-3.50848e-016
4.61853e-014
-4.98733e-016
4.08562e-014
-2.96638e-016
3.90799e-014
-6.14959e-016
-1.59872e-014
-1.48319e-016
-5.32907e-014
-3.322e-016
-7.28306e-014
3.16587e-017
-6.75016e-014
-2.38524e-016
-1.5099e-013
-1.14058e-016
-2.06057e-013
-3.85976e-017
-2.38032e-013
1.01481e-016
-3.01981e-013
6.90854e-016
-3.41061e-013
1.37911e-016
-3.19744e-013
1.1588e-015
-3.37508e-013
4.54498e-016
-3.00204e-013
1.28066e-015
-3.14415e-013
9.25475e-016
-3.28626e-013
1.27979e-015
-3.64153e-013
1.28023e-015
-3.85469e-013
1.35265e-015
-4.10338e-013
1.38518e-015
-3.96128e-013
1.62934e-015
-3.89022e-013
1.80671e-015
-3.87246e-013
1.79327e-015
1.86873e-015
2.91323e-013
2.52243e-013
2.66454e-013
1.38556e-013
7.81597e-014
5.68434e-014
-4.26326e-014
1.1724e-013
2.27374e-013
2.94875e-013
2.41585e-013
3.37508e-013
4.15668e-013
3.09086e-013
3.33955e-013
2.55795e-013
1.81188e-013
1.98952e-013
3.16192e-013
2.02505e-013
1.42109e-014
-1.27898e-013
-1.24345e-013
-8.52651e-014
-8.17124e-014
-2.06057e-013
-7.10543e-014
1.13687e-013
3.19744e-014
7.10543e-015
7.81597e-014
4.61853e-014
5.68434e-014
6.03961e-014
7.81597e-014
-3.19744e-014
-7.4607e-014
7.10543e-014
-2.13163e-014
2.13163e-014
9.59233e-014
1.10134e-013
1.7053e-013
1.49214e-013
2.20268e-013
3.16192e-013
3.87246e-013
3.62377e-013
3.97904e-013
4.76064e-013
3.62377e-013
3.44613e-013
2.94875e-013
3.09086e-013
1.59872e-013
7.4607e-014
1.59872e-013
8.88178e-014
2.84217e-014
-9.59233e-014
-1.24345e-013
-1.24345e-013
-6.39488e-014
-8.17124e-014
-2.91323e-013
-3.94351e-013
-4.22773e-013
-4.65405e-013
-3.8014e-013
-3.23297e-013
-3.37508e-013
-2.45137e-013
-1.1724e-013
-7.10543e-015
-9.9476e-014
-7.4607e-014
-1.06581e-013
-1.10134e-013
-1.7053e-013
-9.23706e-014
-2.0961e-013
-1.63425e-013
-1.81188e-013
-2.02505e-013
-2.38032e-013
-3.23297e-013
-3.58824e-013
-3.76588e-013
-3.6593e-013
-4.15668e-013
-3.76588e-013
-2.84217e-013
-1.1724e-013
-2.27374e-013
-1.88294e-013
-2.20268e-013
-2.41585e-013
-2.98428e-013
-2.38032e-013
-1.98952e-013
-1.24345e-013
-3.55271e-014
6.03961e-014
7.81597e-014
7.10543e-014
7.4607e-014
1.24345e-013
1.13687e-013
2.06057e-013
1.74083e-013
2.41585e-013
3.58824e-013
3.33955e-013
2.62901e-013
1.74083e-013
1.74083e-013
1.20792e-013
3.90799e-014
2.4869e-014
-5.68434e-014
-1.56319e-013
-1.38556e-013
-3.55271e-014
-1.42109e-014
-5.32907e-014
4.26326e-014
-5.32907e-015
1.42109e-014
3.55271e-014
-5.15143e-014
-8.70415e-014
-7.81597e-014
-4.08562e-014
2.66454e-014
4.26326e-014
-8.88178e-015
3.37508e-014
5.50671e-014
2.4869e-014
-1.77636e-014
-3.19744e-014
-1.3145e-013
-1.47438e-013
-1.5099e-013
-3.37508e-014
-1.08358e-013
-2.04281e-013
-2.52243e-013
-1.1724e-013
)
;

boundaryField
{
    inlet
    {
        type            calculated;
        value           nonuniform List<scalar> 2(4.80194e-012 -9.83736e-013);
    }
    outlet
    {
        type            calculated;
        value           nonuniform List<scalar> 2(-1.32973e-013 -3.84521e-013);
    }
    bottom
    {
        type            symmetryPlane;
        value           uniform 0;
    }
    top
    {
        type            symmetryPlane;
        value           uniform 0;
    }
    obstacle
    {
        type            calculated;
        value           nonuniform List<scalar> 
102
(
6.14386e-014
-7.38964e-014
9.41419e-030
7.39055e-043
4.45055e-056
2.2728e-069
1.00988e-082
4.06745e-096
1.44423e-109
4.62893e-123
1.46831e-136
4.20413e-150
1.07825e-163
2.75944e-177
6.64077e-191
1.57624e-204
3.60131e-218
7.57759e-232
1.5488e-245
2.96993e-259
5.79964e-273
1.13356e-286
2.11438e-300
3.97204e-314
0
0
0
0
0
0
0
0
0
0
0
0
0
0
0
0
0
0
0
0
0
0
0
0
0
0
0
0
0
0
0
0
0
0
0
0
0
0
0
0
0
0
0
0
0
0
0
0
0
0
0
0
0
0
0
0
0
0
0
0
0
0
0
0
0
0
0
0
0
0
0
0
0
0
6.06263e-081
2.32741e-065
4.46741e-050
1.71502e-034
)
;
    }
    defaultFaces
    {
        type            empty;
        value           nonuniform 0();
    }
}


// ************************************************************************* //
