/*--------------------------------*- C++ -*----------------------------------*\
| =========                 |                                                 |
| \\      /  F ield         | OpenFOAM: The Open Source CFD Toolbox           |
|  \\    /   O peration     | Version:  5.x                                   |
|   \\  /    A nd           | Web:      www.OpenFOAM.org                      |
|    \\/     M anipulation  |                                                 |
\*---------------------------------------------------------------------------*/
/*   Windows 32 and 64 bit porting by blueCAPE: http://www.bluecape.com.pt   *\
|  Based on Windows porting (2.0.x v4) by Symscape: http://www.symscape.com   |
\*---------------------------------------------------------------------------*/
FoamFile
{
    version     2.0;
    format      ascii;
    class       volScalarField;
    location    "0.004";
    object      p;
}
// * * * * * * * * * * * * * * * * * * * * * * * * * * * * * * * * * * * * * //

dimensions      [1 -1 -2 0 0 0 0];

internalField   nonuniform List<scalar> 
1000
(
100000
100000
100000
100000
100000
100000
100000
100000
100000
100000
100000
100000
100000
100000
100000
100000
100000
100000
100000
100000
100000
100000
100000
100000
100000
100000
100000
100000
100000
100000
100000
100000
100000
100000
100000
100000
100000
100000
100000
100000
100000
100000
100000
100000
100000
100000
100000
100000
100000
100000
100000
100000
100000
100000
100000
100000
100000
100000
100000
100000
100000
100000
100000
100000
100000
100000
100000
100000
100000
100000
100000
100000
100000
100000
100000
100000
100000
100000
100000
100000
100000
100000
100000
100000
100000
100000
100000
100000
100000
100000
100000
100000
100000
100000
100000
100000
100000
100000
100000
100000
100000
100000
100000
100000
100000
100000
100000
100000
100000
100000
100000
100000
100000
100000
100000
100000
100000
99999.9
99999.9
99999.7
99999.3
99998.6
99997.3
99994.6
99989.6
99980.5
99964.3
99936.4
99889.6
99813.9
99695.5
99516.8
99257.4
98895.2
98409.3
97782.9
97006.3
96078.6
95007.5
93807.9
92499.2
91102.4
89638.3
88125.5
86580.2
85016.1
83444
81872.3
80307.4
78753.8
77214.5
75691.6
74186.4
72699.6
71231.4
69782
68351.5
66939.6
65546.4
64171.8
62815.7
61478.2
60159.3
58859.1
57577.6
56314.9
55071.1
53846.4
52640.6
51454.1
50286.6
49138.7
48009.6
46900.4
45810
44739.3
43687.7
42655.5
41642.2
40648.6
39673.9
38718.1
37781.6
36864.3
35965.6
35085.5
34225
33383.3
32559.7
31755.1
30969.8
30203.7
29455.6
28727
28017.7
27328.3
26658.5
26008.2
25379.2
24770.7
24185
23621
23080.9
22565
22074.9
21612.7
21178.6
20776.2
20405.3
20069.6
19769.7
19508.1
19286.4
19105.8
18960.8
18862.7
18791.5
18745.4
18721
18713.9
18719.4
18731.1
18746.9
18767.4
18793.4
18826.7
18869
18921.8
18986
19060.7
19145.5
19237.9
19334.5
19432.1
19526.8
19616
19698.4
19772.8
19839.2
19897.3
19945.9
19986.1
20017.9
20041.3
20060
20067.2
20067
20067.6
20064.9
20076.4
20026.7
20012.2
19996.5
19978.4
19947.9
19902.2
19852.6
19805.4
19756.2
19701.2
19645.2
19585.3
19522.4
19467.4
19402.8
19338.8
19274.7
19209.5
19142.6
19073.9
19003.3
18930.8
18856.5
18780.7
18703.1
18623.2
18540.6
18455.3
18367.4
18277.3
18185.6
18092.4
17997.3
17899.6
17798.8
17695.2
17589.4
17482.3
17375
17268.4
17163.7
17061.5
16959.4
16851.8
16736.8
16618.6
16519.8
16456.5
15872.7
12845.1
100000
100000
100000
100000
100000
100000
100000
100000
100000
100000
100000
100000
100000
100000
100000
100000
100000
100000
100000
100000
100000
100000
100000
100000
100000
100000
100000
100000
100000
100000
100000
100000
100000
100000
100000
100000
100000
100000
100000
100000
100000
100000
100000
100000
100000
100000
100000
100000
100000
100000
100000
100000
100000
100000
100000
100000
100000
100000
100000
100000
100000
100000
100000
100000
100000
100000
100000
100000
100000
100000
100000
100000
100000
100000
100000
100000
100000
100000
100000
100000
100000
100000
100000
100000
100000
100000
100000
100000
100000
100000
100000
100000
100000
100000
100000
100000
100000
100000
100000
100000
100000
100000
100000
100000
100000
100000
100000
100000
100000
100000
100000
100000
100000
100000
100000
100000
100000
100000
100000
100000
100000
100000
100000
100000
100001
100001
100002
100004
100006
100010
100015
100021
100028
100031
100026
100003
99952.6
99853.9
99681.3
99406.9
99004.6
98454.9
97751.8
96904.2
95930.4
94852.6
93692.9
92471.3
91204.1
89904.8
88583.8
87249.2
85906.9
84561.9
83217.7
81877.2
80542.6
79215.9
77898.5
76591.6
75296.3
74013.5
72743.8
71488
70246.5
69020
67808.8
66613.4
65434.1
64271.1
63124.8
61995.3
60882.8
59787.6
58709.5
57649.1
56605.9
55580.7
54572.4
53583
52609.7
51656.3
50718.8
49800.4
48899.8
48016.8
47152.5
46306.5
45479.2
44670.9
43881.8
43112.4
42363.4
41635
40927.9
40243.4
39582.3
38945.3
38333.9
37749.6
37194.3
36669.3
36176.2
35717.2
35294.3
34909.3
34563.4
34257.3
33991.5
33765.7
33578.3
33426.9
33307.2
33215.5
33147
33093.7
33060.9
33033.2
33010.6
32991.9
32977.5
32970.2
32966.1
32960.8
32954.9
32947.2
32938.5
32928.4
32916.8
32903.8
32887.4
32864.1
32829.9
32778.4
32713.9
32662.9
32623.6
32589.2
32557.5
32527.3
32497.1
32469.3
32442.9
32418.1
32394.2
32372.8
32352.5
32331.9
32314.4
32300
32304.7
32253.2
32240.3
32228.6
32220.1
32211.8
32203.2
32193.8
32184
32174.1
32164.2
32154.1
32143.9
32133.5
32122.9
32112.1
32101.2
32089.9
32078.1
32066.4
32054.5
32041.6
32024.9
31997
31972.3
31960.1
31953.6
31945
31934.7
31922.7
31903.6
31867.2
31839.4
31823.9
31815.6
31798.6
31756.2
31717
31693
31675.3
31661.5
31646.6
31620.6
31565.5
31439.6
31183
30725.5
29876.7
27933.1
21376.3
19280.2
18807.7
18022.6
17071.4
16148.4
15285.9
14474.7
13721.5
13041.3
12444.5
11935.7
11513.2
11170.8
10898.9
10686.5
10522.7
10397.3
10301.9
10229.6
10174.7
10133.2
10101.7
10077.7
10059.5
10045.7
10035.1
10027
10020.8
10016
10012.3
10009.5
10007.3
10005.7
10004.4
10003.4
10002.6
10002
10001.6
10001.2
10000.9
10000.7
10000.6
10000.4
10000.3
10000.3
10000.2
10000.2
10000.1
10000.1
10000.1
10000.1
10000
10000
10000
10000
10000
10000
10000
10000
10000
10000
10000
10000
10000
10000
10000
10000
10000
10000
10000
10000
10000
10000
10000
10000
10000
10000
10000
10000
10000
10000
10000
10000
10000
10000
10000
10000
10000
10000
10000
10000
10000
10000
10000
10000
10000
10000
10000
10000
10000
10000
10000
10000
10000
10000
10000
10000
10000
10000
10000
10000
10000
10000
10000
10000
10000
10000
10000
10000
10000
10000
10000
10000
10000
10000
10000
10000
10000
10000
10000
10000
10000
10000
10000
10000
10000
10000
10000
10000
10000
10000
10000
10000
10000
10000
10000
10000
10000
10000
10000
10000
10000
10000
10000
10000
10000
10000
10000
10000
10000
10000
10000
10000
10000
10000
10000
10000
10000
10000
10000
10000
10000
10000
10000
10000
10000
10000
10000
10000
10000
10000
10000
10000
10000
10000
10000
10000
10000
10000
10000
10000
10000
10000
10000
10000
10000
10000
10000
10000
10000
10000
10000
10000
10000
10000
10000
10000
10000
10000
10000
10000
10000
10000
10000
10000
10000
10000
10000
10000
10000
10000
10000
10000
10000
10000
10000
10000
10000
10000
10000
10000
10000
10000
10000
10000
10000
10000
10000
10000
10000
10000
10000
10000
10000
10000
10000
10000
10000
10000
10000
10000
10000
10000
10000
10000
10000
10000
10000
10000
10000
10000
10000
10000
10000
10000
10000
10000
10000
10000
10000
10000
10000
10000
10000
10000
10000
10000
10000
10000
10000
10000
10000
10000
10000
10000
10000
10000
10000
10000
10000
10000
10000
10000
10000
10000
10000
10000
10000
10000
10000
10000
10000
10000
10000
10000
10000
10000
10000
10000
10000
10000
10000
10000
10000
10000
10000
10000
10000
10000
10000
10000
10000
10000
10000
10000
10000
10000
10000
10000
10000
10000
10000
10000
10000
10000
10000
10000
10000
10000
10000
10000
10000
10000
10000
10000
10000
10000
10000
10000
10000
10000
10000
10000
10000
10000
10000
10000
10000
10000
10000
10000
10000
10000
10000
10000
10000
10000
10000
10000
10000
10000
10000
10000
10000
10000
10000
10000
10000
10000
10000
10000
10000
10000
10000
10000
10000
10000
10000
10000
10000
10000
10000
10000
10000
10000
10000
10000
10000
10000
10000
)
;

boundaryField
{
    inlet
    {
        type            zeroGradient;
    }
    outlet
    {
        type            zeroGradient;
    }
    bottom
    {
        type            symmetryPlane;
    }
    top
    {
        type            symmetryPlane;
    }
    obstacle
    {
        type            zeroGradient;
    }
    defaultFaces
    {
        type            empty;
    }
}


// ************************************************************************* //
