/*--------------------------------*- C++ -*----------------------------------*\
| =========                 |                                                 |
| \\      /  F ield         | OpenFOAM: The Open Source CFD Toolbox           |
|  \\    /   O peration     | Version:  5.x                                   |
|   \\  /    A nd           | Web:      www.OpenFOAM.org                      |
|    \\/     M anipulation  |                                                 |
\*---------------------------------------------------------------------------*/
/*   Windows 32 and 64 bit porting by blueCAPE: http://www.bluecape.com.pt   *\
|  Based on Windows porting (2.0.x v4) by Symscape: http://www.symscape.com   |
\*---------------------------------------------------------------------------*/
FoamFile
{
    version     2.0;
    format      ascii;
    class       surfaceScalarField;
    location    "0.004";
    object      phi;
}
// * * * * * * * * * * * * * * * * * * * * * * * * * * * * * * * * * * * * * //

dimensions      [1 0 -1 0 0 0 0];

internalField   nonuniform List<scalar> 
1447
(
2.28084e-012
8.56676e-014
2.21689e-012
8.10393e-014
2.28795e-012
7.79099e-014
2.23821e-012
7.35523e-014
2.11031e-012
7.59809e-014
2.15294e-012
6.67175e-014
1.95399e-012
6.73697e-014
1.85452e-012
6.45178e-014
1.00187e-012
6.26305e-014
7.24754e-013
5.86892e-014
4.47642e-013
5.54903e-014
4.05009e-013
5.77038e-014
4.33431e-013
5.08829e-014
1.13687e-013
5.18474e-014
-4.33431e-013
5.00849e-014
-1.77636e-013
4.50404e-014
-1.42109e-014
4.68653e-014
-4.1922e-013
4.64559e-014
-2.27374e-013
4.66086e-014
3.69482e-013
4.41799e-014
2.62901e-013
4.10297e-014
2.4869e-013
4.3944e-014
6.39488e-014
3.56243e-014
4.33431e-013
3.93366e-014
5.25802e-013
3.5999e-014
3.83693e-013
3.61308e-014
7.17648e-013
3.50761e-014
3.41061e-013
3.27516e-014
7.88702e-013
3.73104e-014
3.55271e-013
2.60694e-014
7.81597e-013
2.92821e-014
9.52127e-013
2.99066e-014
1.22924e-012
2.55004e-014
1.53477e-012
3.22312e-014
2.13873e-012
2.31273e-014
2.40163e-012
3.24116e-014
1.84031e-012
1.65978e-014
1.71241e-012
2.46123e-014
1.1795e-012
1.72917e-014
6.18172e-013
1.50296e-014
2.41585e-013
9.75608e-015
6.25278e-013
1.22888e-014
6.25278e-013
8.2781e-015
7.95808e-013
1.30937e-014
1.06581e-012
3.29597e-015
1.62004e-012
1.63133e-014
1.89715e-012
1.59595e-015
1.48503e-012
7.71605e-015
1.07292e-012
1.06165e-015
4.90274e-013
3.33067e-016
-7.10543e-014
-2.65066e-015
1.27898e-013
-8.08381e-015
6.25278e-013
1.63758e-015
2.4869e-013
-1.04708e-014
3.33955e-013
-6.34909e-015
5.18696e-013
-8.95811e-015
1.06581e-013
-1.25663e-014
3.55271e-013
-1.09981e-014
3.76588e-013
-5.41928e-015
4.68958e-013
-7.78544e-015
1.06581e-013
-1.04985e-014
2.4869e-013
-1.29827e-014
5.25802e-013
-8.25728e-015
1.84741e-013
-1.66742e-014
-3.90799e-013
-1.06928e-014
-5.82645e-013
-1.31561e-014
-1.11555e-012
-1.67158e-014
-1.00897e-012
-1.45717e-014
-1.32161e-012
-1.45717e-014
-1.39266e-012
-1.42455e-014
-1.52056e-012
-1.45439e-014
-1.21503e-012
-1.47521e-014
-3.41061e-013
-7.77156e-015
4.26326e-014
-6.85563e-015
-7.10543e-015
-1.17822e-014
-2.62901e-013
-7.23727e-015
1.56319e-013
-5.98133e-015
4.9738e-014
-2.64372e-015
-4.61853e-013
-6.73767e-015
-1.98952e-013
-4.00374e-015
7.10543e-015
-3.35842e-015
4.40536e-013
-3.27516e-015
1.77636e-013
3.14332e-015
-2.27374e-013
-6.09929e-015
-3.19744e-013
-1.05471e-015
-3.83693e-013
-3.3723e-015
-2.34479e-013
2.55351e-015
7.10543e-014
-4.2466e-015
6.53699e-013
2.40086e-015
6.89226e-013
1.29063e-015
7.4607e-013
2.10248e-015
5.04485e-013
7.28584e-016
6.03961e-013
3.53884e-016
6.18172e-013
3.69843e-015
6.96332e-013
-4.52416e-015
4.47642e-013
-1.14492e-015
6.60805e-013
-1.56819e-015
2.089e-012
-1.96371e-015
5.96145e-012
1.01655e-014
1.77849e-011
3.4743e-014
5.19549e-011
1.11487e-013
1.47871e-010
3.31929e-013
4.11383e-010
9.65193e-013
1.12666e-009
2.71013e-012
3.04179e-009
7.48274e-012
8.09732e-009
2.03839e-011
2.12515e-008
5.46957e-011
5.49761e-008
1.44697e-010
1.40136e-007
3.77207e-010
3.51866e-007
9.68743e-010
8.69959e-007
2.45016e-009
2.11717e-006
6.10076e-009
5.06967e-006
1.4949e-008
1.19396e-005
3.60333e-008
2.76434e-005
8.54032e-008
6.28908e-005
1.98941e-007
0.000140526
4.55246e-007
0.000308229
1.02286e-006
0.000663264
2.25522e-006
0.00139937
4.87656e-006
0.00289283
1.0335e-005
0.00585533
2.14525e-005
0.0115952
4.35806e-005
0.0224463
8.65769e-005
0.0424378
0.000168043
0.0782838
0.000318368
0.140748
0.000588132
0.246359
0.0010582
0.419311
0.00185217
0.693142
0.00314978
1.11152
0.00519779
1.72725
0.00831342
2.59878
0.0128741
3.78384
0.0192892
5.33094
0.0279529
7.27075
0.0391832
9.60964
0.0531613
12.3278
0.0699145
15.3824
0.08932
18.7145
0.11113
22.2579
0.135023
25.9463
0.160654
29.7191
0.187678
33.5238
0.21576
37.3169
0.244592
41.063
0.273899
44.7354
0.303446
48.3146
0.333043
51.7871
0.362539
55.1442
0.391824
58.381
0.420814
61.4949
0.449452
64.4853
0.4777
67.353
0.50553
70.0992
0.532924
72.7258
0.559872
75.2347
0.586361
77.6278
0.612385
79.9071
0.637932
82.0743
0.662994
84.1315
0.68756
86.0801
0.711618
87.9219
0.735156
89.6586
0.758161
91.2917
0.78062
92.8231
0.802519
94.2536
0.823847
95.5872
0.844587
96.8199
0.864739
97.9668
0.884256
99.0019
0.903216
99.9768
0.921417
100.821
0.939217
101.615
0.956007
102.316
0.972597
102.887
0.988098
103.471
1.00322
103.887
1.01748
104.24
1.03155
104.588
1.04357
104.787
1.05754
104.909
1.06737
105.03
1.07965
105.065
1.0896
104.976
1.09872
104.862
1.1085
104.735
1.11633
104.506
1.12356
104.196
1.13123
103.845
1.13749
103.491
1.14226
103.072
1.14759
102.565
1.15246
102.017
1.15594
101.446
1.15817
100.873
1.16067
100.224
1.16312
99.5279
1.16414
98.7834
1.16418
98.0357
1.16342
97.2857
1.16316
96.4919
1.16204
95.6685
1.16
94.7915
1.15688
93.9283
1.15319
93.0478
1.14962
92.1788
1.14522
91.3012
1.14059
90.4025
1.13443
89.4977
1.12799
88.5739
1.12118
87.699
1.1143
86.8361
1.10695
86.0156
1.09857
85.1841
1.08994
84.362
1.08104
83.5506
1.07207
82.7603
1.06304
82.0003
1.05365
81.2704
1.04398
80.5607
1.03429
79.8453
1.0351
79.1162
1.03883
78.374
1.04441
77.6228
1.05157
76.8715
1.06061
76.1284
1.07087
75.3938
1.08101
74.6542
1.08915
73.8973
1.09442
73.1299
1.09534
72.3675
1.09055
71.6277
1.08043
70.9135
1.06503
70.2079
1.04539
69.4985
1.02341
68.7896
1.0003
68.0935
0.977016
67.4208
0.953839
66.766
0.929889
66.1123
0.906149
65.4512
0.882487
64.7862
0.858781
64.1437
0.837166
63.5441
0.809143
62.9593
0.794453
62.3838
0.789435
61.7526
0.785228
60.7338
0.782414
58.3919
0.776542
54.0967
0.747637
49.8027
0.695626
45.9632
0.640625
42.7628
0.592394
40.2727
0.554198
38.4388
0.526178
37.1175
0.506998
36.1559
0.495509
35.4291
0.490564
34.8442
0.490842
34.3482
0.495174
33.8814
0.502277
33.4594
0.51122
33.08
0.521721
32.6924
0.532897
32.289
0.544009
31.8707
0.554689
31.4403
0.564852
30.9964
0.574567
30.5403
0.58387
30.0761
0.592645
29.6018
0.600905
29.1169
0.608574
28.6246
0.615621
28.1243
0.622033
27.6144
0.627771
27.0977
0.632822
26.5764
0.637255
26.0477
0.641063
25.511
0.644152
24.9692
0.646543
24.4227
0.648265
23.871
0.649253
23.3164
0.649505
22.7619
0.649143
22.2063
0.648244
21.6485
0.646743
21.0905
0.644576
20.5355
0.641853
19.9866
0.63874
19.4473
0.635418
18.9198
0.632033
18.3993
0.628526
17.8732
0.624547
17.3368
0.619957
16.8166
0.615327
16.3542
0.611546
15.6873
0.59467
11.2821
0.518343
0.251002
-9.00968e-012
-8.58336e-012
-7.7307e-012
-6.46594e-012
-6.25278e-012
-6.63647e-012
-6.26699e-012
-6.45173e-012
-7.44649e-012
-7.00595e-012
-6.56541e-012
-5.96856e-012
-6.32383e-012
-5.99698e-012
-4.77485e-012
-5.84066e-012
-5.8975e-012
-6.25278e-012
-6.5512e-012
-6.26699e-012
-5.85487e-012
-5.65592e-012
-5.20117e-012
-6.08225e-012
-5.57066e-012
-4.76064e-012
-4.20641e-012
-3.5385e-012
-4.1922e-012
-5.1017e-012
-4.68958e-012
-4.46221e-012
-4.5759e-012
-4.91696e-012
-4.23483e-012
-4.36273e-012
-2.58638e-012
-2.45848e-012
-2.44427e-012
-2.18847e-012
-8.3844e-013
-1.66267e-012
-1.86162e-012
-2.95586e-012
-2.70006e-012
-2.33058e-012
-2.97007e-012
-1.74794e-012
-1.79057e-012
-1.60583e-012
-9.23706e-013
-1.12266e-012
-1.84741e-012
-1.64846e-012
-1.09424e-012
1.42109e-013
7.24754e-013
1.89004e-012
2.04636e-012
1.63425e-012
2.359e-012
2.82796e-012
2.37321e-012
2.25953e-012
1.06581e-012
2.98428e-013
6.39488e-013
3.69482e-013
4.83169e-013
7.53175e-013
1.42109e-014
1.13687e-013
7.53175e-013
1.33582e-012
2.64322e-012
2.43006e-012
2.64322e-012
2.4869e-012
2.44427e-012
2.4869e-012
3.22586e-012
2.44427e-012
2.25953e-012
2.50111e-012
3.35376e-012
2.57216e-012
1.9611e-012
2.70006e-012
2.37321e-012
1.40687e-012
1.22213e-012
1.1795e-012
1.46372e-012
1.84741e-012
2.40163e-012
2.94165e-012
3.39639e-012
2.58638e-012
8.52651e-013
-2.38742e-012
-9.27969e-012
-2.81659e-011
-7.81171e-011
-2.13788e-010
-5.76549e-010
-1.53399e-009
-4.01782e-009
-1.03742e-008
-2.63917e-008
-6.61367e-008
-1.63192e-007
-3.96313e-007
-9.46822e-007
-2.22421e-006
-5.13495e-006
-1.16439e-005
-2.59179e-005
-5.659e-005
-0.000121113
-0.000253857
-0.000520616
-0.00104353
-0.00204178
-0.00389386
-0.00722524
-0.0130161
-0.0227024
-0.0382006
-0.0617095
-0.0950276
-0.13797
-0.185298
-0.221403
-0.211423
-0.0933056
0.210331
0.802925
1.88956
3.67888
6.3922
10.2155
15.2533
21.4851
28.782
36.9635
45.8368
55.2229
64.9682
74.9479
85.0638
95.24
105.419
115.555
125.615
135.573
145.408
155.105
164.652
174.037
183.254
192.295
201.155
209.83
218.315
226.609
234.709
242.612
250.319
257.827
265.136
272.246
279.158
285.868
292.387
298.696
304.833
310.732
316.515
321.987
327.415
332.55
337.456
342.436
346.851
351.348
355.753
359.641
363.554
367.489
370.971
374.226
377.596
380.819
383.616
386.248
388.977
391.6
393.857
395.856
397.884
399.946
401.797
403.332
404.695
406.075
407.495
408.83
409.906
410.716
411.537
412.562
413.637
414.485
415.146
415.73
416.426
417.34
418.232
419
419.674
420.297
420.973
421.68
422.417
423.233
423.991
424.686
425.366
426.069
426.789
427.503
428.201
428.828
429.303
429.749
430.218
430.725
431.248
431.755
432.133
432.364
432.524
432.697
432.929
433.222
433.562
433.855
433.952
433.519
430.84
421.118
401.438
379.858
358.572
339.109
322.495
309.092
298.839
291.401
286.303
283.031
281.095
280.103
279.737
279.758
279.998
280.339
280.719
281.133
281.567
281.954
282.263
282.405
282.446
282.721
283.138
283.553
283.944
284.318
284.629
284.686
284.719
285.024
285.462
285.851
285.819
285.543
285.631
285.879
286.271
286.752
287.144
287.246
286.571
284.485
280.904
274.597
261.143
224.066
128.234
117.567
104.979
92.2315
79.9523
68.415
57.637
47.72
38.8172
31.0454
24.4516
19.008
14.6235
11.1649
8.48141
6.42459
4.86116
3.67878
2.78684
2.11445
1.60724
1.22408
0.934077
0.714096
0.54686
0.419445
0.32217
0.247763
0.190751
0.147
0.11338
0.0875134
0.0675912
0.0522334
0.0403846
0.0312368
0.02417
0.018708
0.0144844
0.0112172
0.00868886
0.00673177
0.00521646
0.00404292
0.00313389
0.00242961
0.00188387
0.00146092
0.00113307
0.000878921
0.000681867
0.000529064
0.00041056
0.000318644
0.000247342
0.000192023
0.000149099
0.000115788
8.99331e-005
6.98633e-005
5.42815e-005
4.21824e-005
3.27859e-005
2.54873e-005
1.98172e-005
1.54114e-005
1.19876e-005
9.32624e-006
7.25725e-006
5.64844e-006
4.39722e-006
3.42391e-006
2.66663e-006
2.07731e-006
1.61861e-006
1.26148e-006
9.83384e-007
7.66778e-007
5.98028e-007
4.6653e-007
3.64037e-007
2.84133e-007
2.21823e-007
1.73221e-007
1.35303e-007
1.05712e-007
8.26131e-008
6.45771e-008
5.04901e-008
3.94839e-008
3.08818e-008
2.41556e-008
1.88936e-008
1.47742e-008
1.15462e-008
9.01338e-009
7.02175e-009
5.45086e-009
4.20559e-009
3.21097e-009
2.40718e-009
-1.76748e-013
-2.86511e-013
-3.81917e-014
-6.48366e-014
-1.33227e-014
-1.6358e-014
-5.32907e-015
-5.53897e-015
7.10543e-015
-2.62984e-015
7.99361e-015
4.85723e-017
3.10862e-014
-5.02636e-016
3.10862e-014
7.11237e-016
5.59552e-014
-3.25694e-016
5.86198e-014
1.53783e-015
4.44089e-014
3.90746e-016
4.44089e-014
8.4004e-016
7.19425e-014
-1.22732e-016
7.19425e-014
7.19477e-016
7.90479e-014
1.15923e-015
6.21725e-014
5.63785e-017
6.75016e-014
-5.24754e-017
8.88178e-014
2.73653e-016
7.01661e-014
5.93275e-016
8.43769e-014
6.07153e-018
8.34888e-014
-2.1684e-016
1.03029e-013
-1.01481e-016
6.66134e-014
6.07587e-016
7.37188e-014
-4.75314e-016
9.41469e-014
-9.46292e-016
9.9476e-014
-3.85976e-017
6.12843e-014
-4.33681e-017
4.61853e-014
-1.66967e-015
1.5099e-014
-1.47408e-015
2.66454e-014
-1.53219e-015
1.15463e-014
-2.10595e-015
2.66454e-015
-2.31065e-015
-5.06262e-014
-1.58684e-015
-6.66134e-014
-3.57266e-015
-2.93099e-014
-1.46367e-015
-4.88498e-014
-3.10559e-015
-5.15143e-014
-2.07343e-015
-6.83897e-014
-1.98322e-015
-7.37188e-014
-2.31933e-015
-6.57252e-014
-2.22001e-015
-3.19744e-014
-2.00491e-015
-1.42109e-014
-2.02833e-015
-5.24025e-014
-1.77983e-015
-2.04281e-014
-2.00014e-015
-1.5099e-014
-1.25334e-015
-8.88178e-015
-1.31882e-015
-7.99361e-015
-1.45673e-015
4.08562e-014
-1.10892e-015
3.9968e-014
-6.90854e-016
5.06262e-014
-1.80715e-015
3.37508e-014
1.20563e-016
4.44089e-014
-1.19999e-015
1.06581e-014
-7.2815e-016
-3.37508e-014
-1.24683e-015
-2.57572e-014
-7.66748e-016
-5.50671e-014
-1.32403e-015
-5.24025e-014
-8.47412e-016
-2.66454e-014
-1.32533e-015
-5.86198e-014
-6.79144e-016
-6.12843e-014
-4.54498e-016
-8.79297e-014
-1.2117e-015
-1.86517e-014
-6.28837e-016
-2.66454e-015
-3.48246e-016
-2.39808e-014
-1.43852e-015
-2.66454e-015
9.06827e-016
3.64153e-014
-9.3198e-016
5.9508e-014
-2.34621e-016
5.41789e-014
7.76289e-017
4.26326e-014
-4.64039e-017
1.95399e-014
-9.59302e-016
-1.68754e-014
-8.93383e-016
-4.44089e-014
8.4828e-016
-3.37508e-014
-2.88831e-016
-3.4639e-014
-9.7795e-016
-1.15463e-014
-6.81313e-016
-1.24345e-014
-1.34051e-015
-2.57572e-014
5.05672e-016
-2.22045e-014
-1.34484e-015
-2.30926e-014
4.35849e-016
-3.64153e-014
-1.14665e-015
-4.88498e-014
-7.67615e-017
-3.19744e-014
6.54858e-017
-1.15463e-014
-6.97359e-016
-3.4639e-014
-3.62991e-016
-2.75335e-014
-7.04298e-016
-5.24025e-014
3.17454e-016
-2.66454e-014
-1.27459e-015
-4.35207e-014
3.99854e-016
-4.08562e-014
-7.34655e-016
-5.06262e-014
-3.2396e-016
-5.32907e-014
-3.90313e-017
-5.41789e-014
-4.78784e-016
-9.32587e-014
-3.85976e-017
-1.39444e-013
-4.10262e-016
-1.74971e-013
1.09721e-016
-2.04281e-013
-1.47885e-016
-1.83853e-013
2.72352e-016
-2.02505e-013
6.79578e-016
-2.07834e-013
1.33574e-016
-2.12275e-013
6.08021e-016
-2.46025e-013
3.38271e-017
-2.76223e-013
2.85796e-016
-2.95763e-013
8.46979e-016
-2.62013e-013
5.77663e-016
-2.61124e-013
6.26235e-016
-2.18492e-013
5.49907e-016
-2.51354e-013
9.3545e-016
-2.4869e-013
7.1167e-016
-2.62901e-013
5.67688e-016
-2.90434e-013
1.30798e-015
-2.65565e-013
4.97866e-016
-2.36255e-013
1.25984e-015
-2.79776e-013
5.97612e-016
-2.8777e-013
1.10675e-015
-2.8777e-013
1.56819e-015
-2.73559e-013
1.09071e-015
-2.46914e-013
1.73906e-015
-1.9007e-013
1.19479e-015
-2.4869e-013
1.4203e-015
-2.07834e-013
1.56515e-015
-2.52243e-013
1.23642e-015
-2.70006e-013
1.55648e-015
-3.10862e-013
1.11066e-015
-2.57572e-013
1.64278e-015
-3.10862e-013
1.50747e-015
-2.62901e-013
1.53393e-015
-2.84217e-013
1.55952e-015
-3.17968e-013
1.33964e-015
-2.84217e-013
1.31535e-015
-2.61124e-013
1.32229e-015
-2.84217e-013
1.68658e-015
-2.6823e-013
1.70957e-015
-3.16192e-013
1.79197e-015
-2.75335e-013
1.75467e-015
-3.10862e-013
1.69266e-015
-3.10862e-013
1.70827e-015
-3.03757e-013
2.17925e-015
-3.32179e-013
1.35352e-015
-3.37508e-013
2.44943e-015
-3.41061e-013
1.14578e-015
-3.05533e-013
2.43729e-015
-2.70006e-013
1.66924e-015
-2.6823e-013
1.9585e-015
-2.89546e-013
2.08514e-015
-3.05533e-013
2.06085e-015
-3.10862e-013
2.22955e-015
-3.17968e-013
2.30371e-015
-2.91323e-013
2.71137e-015
-3.23297e-013
2.96508e-015
3.01755e-015
6.48736e-010
1.62256e-010
4.25686e-011
1.10489e-011
2.93454e-012
8.95284e-013
5.29354e-013
5.22249e-013
4.9738e-013
3.62377e-013
3.41061e-013
3.37508e-013
4.15668e-013
2.84217e-013
3.16192e-013
1.88294e-013
9.59233e-014
1.06581e-013
2.23821e-013
9.23706e-014
4.61853e-014
1.7053e-013
1.27898e-013
-1.06581e-014
1.27898e-013
2.4869e-013
2.84217e-013
2.62901e-013
2.98428e-013
2.13163e-013
2.16716e-013
3.73035e-013
4.01457e-013
4.22773e-013
3.90799e-013
4.29878e-013
4.72511e-013
5.68434e-013
5.04485e-013
5.82645e-013
5.8975e-013
6.75016e-013
6.6791e-013
5.68434e-013
5.18696e-013
4.72511e-013
4.90274e-013
3.51719e-013
2.77112e-013
3.48166e-013
3.33955e-013
2.27374e-013
2.0961e-013
2.38032e-013
2.77112e-013
2.62901e-013
3.41061e-013
2.84217e-013
2.52243e-013
1.49214e-013
-1.06581e-014
-3.90799e-014
3.55271e-015
2.13163e-014
-7.4607e-014
-1.74083e-013
-2.13163e-013
-1.27898e-013
-1.3145e-013
-1.84741e-013
-2.80664e-013
-3.76588e-013
-3.87246e-013
-2.80664e-013
-3.01981e-013
-2.02505e-013
-7.81597e-014
-1.59872e-013
-1.49214e-013
-5.32907e-014
-1.03029e-013
-3.55271e-014
7.10543e-015
-3.55271e-015
3.19744e-014
6.39488e-014
-4.61853e-014
-1.35003e-013
-9.59233e-014
-1.10134e-013
-1.06581e-013
-6.39488e-014
-9.9476e-014
-1.06581e-013
-1.1724e-013
-2.8777e-013
-3.62377e-013
-4.47642e-013
-4.51195e-013
-5.29354e-013
-4.33431e-013
-3.37508e-013
-3.44613e-013
-3.94351e-013
-4.22773e-013
-5.11591e-013
-4.1922e-013
-3.51719e-013
-2.84217e-013
-3.6593e-013
-2.91323e-013
-1.77636e-013
-1.81188e-013
-2.8777e-013
-3.37508e-013
-3.6593e-013
-4.76064e-013
-4.54747e-013
-4.90274e-013
-4.68958e-013
-5.29354e-013
-4.36984e-013
-3.87246e-013
-3.0731e-013
-2.54019e-013
-1.65201e-013
-1.42109e-013
-7.63833e-014
-4.79616e-014
-7.28306e-014
-1.24345e-013
-6.21725e-014
-1.29674e-013
-1.7053e-013
-1.06581e-013
-8.88178e-014
-5.32907e-015
7.63833e-014
1.66978e-013
1.54543e-013
1.9007e-013
1.88294e-013
1.88294e-013
2.34479e-013
2.27374e-013
2.02505e-013
9.05942e-014
-2.4869e-014
-1.20792e-013
)
;

boundaryField
{
    inlet
    {
        type            calculated;
        value           nonuniform List<scalar> 2(8.44853e-012 -2.33489e-012);
    }
    outlet
    {
        type            calculated;
        value           nonuniform List<scalar> 2(-2.13628e-013 -3.31563e-013);
    }
    bottom
    {
        type            symmetryPlane;
        value           uniform 0;
    }
    top
    {
        type            symmetryPlane;
        value           uniform 0;
    }
    obstacle
    {
        type            calculated;
        value           nonuniform List<scalar> 
102
(
6.62226
3.78267e-013
0.00182895
0.00119001
0.000670211
0.000331506
0.000144075
5.47571e-005
1.80299e-005
5.08905e-006
1.21664e-006
2.43087e-007
4.00207e-008
5.35335e-009
5.74181e-010
4.88056e-011
3.25555e-012
1.69097e-013
6.79951e-015
2.10808e-016
5.026e-018
9.20108e-020
1.29256e-021
1.39327e-023
1.15277e-025
7.32521e-028
3.57759e-030
1.34398e-032
3.88665e-035
8.65914e-038
1.48733e-040
1.97093e-043
2.01618e-046
1.59304e-049
9.72705e-053
4.59182e-056
1.67652e-059
4.73598e-063
1.03543e-066
1.75251e-070
2.2969e-074
2.33162e-078
1.83357e-082
1.11722e-086
5.27546e-091
1.93074e-095
5.4777e-100
1.20488e-104
2.05503e-109
2.71821e-114
2.78864e-119
2.21924e-124
1.37018e-129
6.56403e-135
2.44028e-140
7.04123e-146
1.57709e-151
2.7424e-157
3.70284e-163
3.88272e-169
3.16231e-175
2.00084e-181
9.8363e-188
3.75786e-194
1.11588e-200
2.57596e-207
4.6237e-214
6.45438e-221
7.00839e-228
5.92065e-235
3.89222e-242
1.99156e-249
7.93328e-257
2.46076e-264
5.94482e-272
1.11882e-279
1.64072e-287
1.87527e-295
1.67089e-303
1.16089e-311
4.94066e-320
0
0
0
0
0
0
0
0
0
0
0
0
0
0
0
0
0
6.06263e-081
2.32741e-065
4.46741e-050
1.71502e-034
)
;
    }
    defaultFaces
    {
        type            empty;
        value           nonuniform 0();
    }
}


// ************************************************************************* //
