/*--------------------------------*- C++ -*----------------------------------*\
| =========                 |                                                 |
| \\      /  F ield         | OpenFOAM: The Open Source CFD Toolbox           |
|  \\    /   O peration     | Version:  5.x                                   |
|   \\  /    A nd           | Web:      www.OpenFOAM.org                      |
|    \\/     M anipulation  |                                                 |
\*---------------------------------------------------------------------------*/
/*   Windows 32 and 64 bit porting by blueCAPE: http://www.bluecape.com.pt   *\
|  Based on Windows porting (2.0.x v4) by Symscape: http://www.symscape.com   |
\*---------------------------------------------------------------------------*/
FoamFile
{
    version     2.0;
    format      ascii;
    class       volScalarField;
    location    "0.007";
    object      mag(U);
}
// * * * * * * * * * * * * * * * * * * * * * * * * * * * * * * * * * * * * * //

dimensions      [0 1 -1 0 0 0 0];

internalField   nonuniform List<scalar> 
100
(
15.5967
61.5001
148.258
223.066
269.607
293.403
15.5966
61.5012
148.25
223.164
269.717
293.12
15.5965
61.5023
148.241
223.268
269.856
293.282
15.5964
61.5032
148.234
223.356
269.993
294.489
15.5963
61.5039
148.229
223.428
270.108
297.11
15.5961
61.5053
148.217
223.565
270.257
308.227
15.5956
61.509
148.183
223.831
270.243
306.874
15.5944
61.5155
148.108
224.173
270.035
304.049
15.5922
61.5268
147.978
224.079
269.448
301.484
15.5908
61.5349
147.882
223.843
268.899
299.989
321.979
338.126
319.966
334.076
315.912
328.872
312.07
323.815
309.911
320.981
117.713
151.657
111.485
235.509
233.159
137.873
323.712
312.441
175.635
353.337
340.991
193.822
361.95
348.062
195.284
352.329
347.002
191.647
347.499
345.851
185.767
341.998
339.591
188.125
335.506
331.22
191.434
331.867
327.126
192.882
)
;

boundaryField
{
    inlet
    {
        type            calculated;
        value           nonuniform List<scalar> 10(15.5961 15.5956 15.5944 15.5922 15.5908 15.5967 15.5966 15.5965 15.5964 15.5963);
    }
    outlet
    {
        type            calculated;
        value           nonuniform List<scalar> 10(191.647 185.767 188.125 191.434 192.882 111.485 137.873 175.635 193.822 195.284);
    }
    bottom
    {
        type            symmetryPlane;
    }
    top
    {
        type            symmetryPlane;
    }
    obstacle
    {
        type            calculated;
        value           nonuniform List<scalar> 
12
(
293.403
293.12
293.282
294.489
297.11
117.713
235.509
323.712
353.337
361.95
321.979
338.126
)
;
    }
    defaultFaces
    {
        type            empty;
    }
}


// ************************************************************************* //
