/*--------------------------------*- C++ -*----------------------------------*\
| =========                 |                                                 |
| \\      /  F ield         | OpenFOAM: The Open Source CFD Toolbox           |
|  \\    /   O peration     | Version:  5.x                                   |
|   \\  /    A nd           | Web:      www.OpenFOAM.org                      |
|    \\/     M anipulation  |                                                 |
\*---------------------------------------------------------------------------*/
/*   Windows 32 and 64 bit porting by blueCAPE: http://www.bluecape.com.pt   *\
|  Based on Windows porting (2.0.x v4) by Symscape: http://www.symscape.com   |
\*---------------------------------------------------------------------------*/
FoamFile
{
    version     2.0;
    format      ascii;
    class       volScalarField;
    location    "0.007";
    object      p;
}
// * * * * * * * * * * * * * * * * * * * * * * * * * * * * * * * * * * * * * //

dimensions      [1 -1 -2 0 0 0 0];

internalField   nonuniform List<scalar> 
100
(
93362.3
76448.5
54435.3
38658.7
33975.8
34129.8
93362.3
76448.7
54434.8
38653.4
33947.2
34095.2
93362.3
76448.9
54434.2
38649.1
33918.2
34070.3
93362.3
76449
54433.5
38646.1
33906.3
34029.2
93362.3
76449.2
54433
38644.2
33904.3
33989.3
93362.3
76449.5
54431.8
38640.7
33908.5
33877.6
93362.2
76450.3
54428.1
38643.8
33896.3
33654.9
93362.1
76452.2
54422.4
38673.8
33605.6
33347.2
93361.5
76459
54420.4
38719.4
33431.9
33358.9
93361
76464.8
54413.1
38788
33496.7
33542.6
33647.1
33244.3
33293
32887.8
32998.6
32632.8
33218.6
33035.4
33500.5
33415.2
32231.9
32058.9
20077.2
31900.4
31763.4
19893.8
32087.9
31875.6
19772.6
32019.9
31778.8
19665.2
31991
31686.1
19609
32200
31540.1
19550
32413.2
31454.6
19468.3
32367
31062.4
18636.9
32764.6
31472
18973.7
33209.5
32046.5
19762.9
)
;

boundaryField
{
    inlet
    {
        type            zeroGradient;
    }
    outlet
    {
        type            zeroGradient;
    }
    bottom
    {
        type            symmetryPlane;
    }
    top
    {
        type            symmetryPlane;
    }
    obstacle
    {
        type            zeroGradient;
    }
    defaultFaces
    {
        type            empty;
    }
}


// ************************************************************************* //
