/*--------------------------------*- C++ -*----------------------------------*\
| =========                 |                                                 |
| \\      /  F ield         | OpenFOAM: The Open Source CFD Toolbox           |
|  \\    /   O peration     | Version:  5.x                                   |
|   \\  /    A nd           | Web:      www.OpenFOAM.org                      |
|    \\/     M anipulation  |                                                 |
\*---------------------------------------------------------------------------*/
/*   Windows 32 and 64 bit porting by blueCAPE: http://www.bluecape.com.pt   *\
|  Based on Windows porting (2.0.x v4) by Symscape: http://www.symscape.com   |
\*---------------------------------------------------------------------------*/
FoamFile
{
    version     2.0;
    format      ascii;
    class       surfaceScalarField;
    location    "0.007";
    object      phi;
}
// * * * * * * * * * * * * * * * * * * * * * * * * * * * * * * * * * * * * * //

dimensions      [1 0 -1 0 0 0 0];

internalField   nonuniform List<scalar> 
174
(
10.6461
0.00260355
19.1257
-0.0168154
23.7821
0.0734861
21.3681
-0.197492
18.6876
0.976086
0.837736
7.11954
0.00422545
12.7896
-0.0274466
15.9092
0.114948
14.2862
-0.322822
12.6189
1.56165
1.40974
4.76118
0.00523252
8.55256
-0.0341179
10.6428
0.137766
9.55174
-0.397823
8.48454
1.93122
1.77441
3.18402
0.0058663
5.71923
-0.0383352
7.11904
0.150393
6.3904
-0.445087
5.72878
2.16054
2.00586
2.1293
0.0062719
3.82457
-0.0410312
4.76137
0.157787
4.27988
-0.479684
3.88627
2.28728
2.15758
9.03772
0.007794
16.2322
-0.0515413
20.2186
0.176333
18.2018
-0.630028
17.4405
1.99087
1.22256
16.6859
16.0722
0.00968271
28.8605
-0.0649474
35.9877
0.175263
32.3374
-0.763068
30.7103
1.32295
0.136054
28.9171
28.5827
0.0104627
51.3026
-0.0684626
64.0753
0.159378
57.2625
-0.760921
53.6475
0.0782024
-0.631279
50.0976
50.8316
0.00569582
91.1721
-0.0361641
113.909
0.0981734
101.425
-0.479151
94.3966
-0.422667
-0.640197
88.1142
90.3965
162.055
202.414
180.199
166.719
155.797
16.396
0.195073
-0.0574751
16.0665
28.473
-0.0804692
-0.30305
27.7211
49.416
-0.258449
-0.425844
48.3706
87.0098
-0.208983
-0.286185
85.4026
154.258
152.256
7.29683
-0.259671
10.16
-1.93466
-8.03457
8.65613
-0.501656
9.60523
-3.36309
-10.8522
7.53836
-0.82146
8.14785
-4.32873
-10.4812
5.47244
-0.954374
5.92461
-4.75507
-9.82741
3.76784
-1.07013
4.01806
-4.96498
-9.23931
15.3841
-0.780149
16.3084
-5.65483
-6.05319
27.3363
-0.943226
27.4176
-6.74837
-6.82983
47.7585
-0.856472
45.006
-6.40024
-11.4706
84.8957
-0.50887
79.9186
-3.31148
-8.22377
152.34
145.74
)
;

boundaryField
{
    inlet
    {
        type            calculated;
        value           nonuniform List<scalar> 10(-2.40158 -4.27054 -7.59363 -13.5016 -24.0075 -2.82923 -1.89201 -1.26525 -0.846119 -0.565831);
    }
    outlet
    {
        type            calculated;
        value           nonuniform List<scalar> 10(5.65431 9.85517 17.251 31.658 58.4915 4.15742 3.31601 2.70937 1.99218 1.35106);
    }
    bottom
    {
        type            symmetryPlane;
        value           uniform 0;
    }
    top
    {
        type            symmetryPlane;
        value           uniform 0;
    }
    obstacle
    {
        type            calculated;
        value           nonuniform List<scalar> 
12
(
17.4417
11.6418
7.78426
5.22129
3.51993
-6.56488
-8.41698
-7.35958
-5.34247
-3.67651
-0.256556
-0.00713628
)
;
    }
    defaultFaces
    {
        type            empty;
        value           nonuniform 0();
    }
}


// ************************************************************************* //
