/*--------------------------------*- C++ -*----------------------------------*\
| =========                 |                                                 |
| \\      /  F ield         | OpenFOAM: The Open Source CFD Toolbox           |
|  \\    /   O peration     | Version:  5.x                                   |
|   \\  /    A nd           | Web:      www.OpenFOAM.org                      |
|    \\/     M anipulation  |                                                 |
\*---------------------------------------------------------------------------*/
/*   Windows 32 and 64 bit porting by blueCAPE: http://www.bluecape.com.pt   *\
|  Based on Windows porting (2.0.x v4) by Symscape: http://www.symscape.com   |
\*---------------------------------------------------------------------------*/
FoamFile
{
    version     2.0;
    format      ascii;
    class       volScalarField;
    location    "0.007";
    object      T;
}
// * * * * * * * * * * * * * * * * * * * * * * * * * * * * * * * * * * * * * //

dimensions      [0 0 0 1 0 0 0];

internalField   nonuniform List<scalar> 
100
(
341.117
325.473
277.888
285.203
315.022
381.566
341.117
325.473
277.887
285.185
315.069
381.51
341.117
325.473
277.886
285.171
315.138
381.461
341.117
325.473
277.885
285.176
314.883
381.402
341.117
325.473
277.883
285.218
313.91
381.233
341.117
325.473
277.881
285.236
313.262
363.474
341.117
325.473
277.876
285.235
313.896
364.219
341.117
325.473
277.873
285.278
314.149
364.587
341.116
325.478
277.887
285.34
314.338
365.666
341.116
325.483
277.888
285.459
314.739
366.724
393.439
398.237
389.562
398.202
388.813
397.401
389.37
398.443
390.215
399.525
383.022
384.61
355.659
396.688
397.805
364.327
419.345
415.4
378.03
420.698
413.806
377.996
418.367
410.955
374.825
410.211
408.004
372.624
409.606
407.844
366.95
408.3
406.002
359.886
409.063
406.379
362.124
410.443
407.567
366.977
)
;

boundaryField
{
    inlet
    {
        type            zeroGradient;
    }
    outlet
    {
        type            zeroGradient;
    }
    bottom
    {
        type            symmetryPlane;
    }
    top
    {
        type            symmetryPlane;
    }
    obstacle
    {
        type            zeroGradient;
    }
    defaultFaces
    {
        type            empty;
    }
}


// ************************************************************************* //
