/*--------------------------------*- C++ -*----------------------------------*\
| =========                 |                                                 |
| \\      /  F ield         | OpenFOAM: The Open Source CFD Toolbox           |
|  \\    /   O peration     | Version:  5.x                                   |
|   \\  /    A nd           | Web:      www.OpenFOAM.org                      |
|    \\/     M anipulation  |                                                 |
\*---------------------------------------------------------------------------*/
/*   Windows 32 and 64 bit porting by blueCAPE: http://www.bluecape.com.pt   *\
|  Based on Windows porting (2.0.x v4) by Symscape: http://www.symscape.com   |
\*---------------------------------------------------------------------------*/
FoamFile
{
    version     2.0;
    format      ascii;
    class       volVectorField;
    location    "0.007";
    object      U;
}
// * * * * * * * * * * * * * * * * * * * * * * * * * * * * * * * * * * * * * //

dimensions      [0 1 -1 0 0 0 0];

internalField   nonuniform List<vector> 
100
(
(15.5967 0.000286659 0)
(61.5001 -0.00297644 0)
(148.258 0.0220423 0)
(223.066 -0.120415 0)
(269.605 1.01498 0)
(293.401 1.2878 0)
(15.5966 0.00074766 0)
(61.5012 -0.00779044 0)
(148.25 0.0555373 0)
(223.163 -0.3076 0)
(269.705 2.54995 0)
(293.097 3.62296 0)
(15.5965 0.00103101 0)
(61.5023 -0.01079 0)
(148.241 0.0734916 0)
(223.267 -0.41819 0)
(269.833 3.51216 0)
(293.233 5.367 0)
(15.5964 0.00120867 0)
(61.5032 -0.012686 0)
(148.234 0.0835266 0)
(223.356 -0.485744 0)
(269.961 4.1139 0)
(294.424 6.19332 0)
(15.5963 0.00132189 0)
(61.5039 -0.0138939 0)
(148.229 0.0893858 0)
(223.428 -0.535795 0)
(270.069 4.54765 0)
(297.024 7.15609 0)
(15.5961 0.00153619 0)
(61.5053 -0.0162433 0)
(148.217 0.0982815 0)
(223.564 -0.648876 0)
(270.22 4.46692 0)
(308.178 5.48805 0)
(15.5956 0.00198488 0)
(61.509 -0.0213524 0)
(148.183 0.103199 0)
(223.829 -0.835608 0)
(270.223 3.35672 0)
(306.87 1.57443 0)
(15.5944 0.00242667 0)
(61.5155 -0.0256175 0)
(148.108 0.103248 0)
(224.171 -0.955318 0)
(270.033 0.838466 0)
(304.045 -1.53726 0)
(15.5922 0.00174135 0)
(61.5268 -0.0179134 0)
(147.978 0.0741416 0)
(224.078 -0.706418 0)
(269.446 -0.969266 0)
(301.473 -2.50778 0)
(15.5908 0.0004466 0)
(61.5349 -0.00458832 0)
(147.882 0.0216666 0)
(223.843 -0.214033 0)
(268.898 -0.45342 0)
(299.988 -0.915626 0)
(321.96 3.50373 0)
(338.126 0.151414 0)
(319.966 0.20072 0)
(334.062 -3.06829 0)
(315.896 -3.16432 0)
(328.818 -6.0027 0)
(312.052 -3.42433 0)
(323.779 -4.8315 0)
(309.909 -1.15738 0)
(320.977 -1.5093 0)
(117.393 -8.67468 0)
(151.289 -10.5623 0)
(111.106 -9.1771 0)
(235.509 -0.170237 0)
(233.08 -6.04935 0)
(136.937 -16.0391 0)
(323.613 -8.01622 0)
(312.093 -14.7376 0)
(174.601 -19.0291 0)
(353.166 -10.977 0)
(340.562 -17.1151 0)
(192.976 -18.0811 0)
(361.741 -12.3025 0)
(347.61 -17.7443 0)
(194.608 -16.2398 0)
(352.237 -8.05016 0)
(346.539 -17.9072 0)
(191.343 -10.7849 0)
(347.318 -11.1893 0)
(344.717 -27.9834 0)
(185.467 -10.5489 0)
(341.834 -10.5739 0)
(338.524 -26.9021 0)
(187.054 -20.0445 0)
(335.434 -6.9849 0)
(330.892 -14.7265 0)
(190.779 -15.8189 0)
(331.861 -2.0276 0)
(327.105 -3.71546 0)
(192.835 -4.27308 0)
)
;

boundaryField
{
    inlet
    {
        type            zeroGradient;
    }
    outlet
    {
        type            zeroGradient;
    }
    bottom
    {
        type            symmetryPlane;
    }
    top
    {
        type            symmetryPlane;
    }
    obstacle
    {
        type            zeroGradient;
    }
    defaultFaces
    {
        type            empty;
    }
}


// ************************************************************************* //
