/*--------------------------------*- C++ -*----------------------------------*\
| =========                 |                                                 |
| \\      /  F ield         | OpenFOAM: The Open Source CFD Toolbox           |
|  \\    /   O peration     | Version:  5.x                                   |
|   \\  /    A nd           | Web:      www.OpenFOAM.org                      |
|    \\/     M anipulation  |                                                 |
\*---------------------------------------------------------------------------*/
/*   Windows 32 and 64 bit porting by blueCAPE: http://www.bluecape.com.pt   *\
|  Based on Windows porting (2.0.x v4) by Symscape: http://www.symscape.com   |
\*---------------------------------------------------------------------------*/
FoamFile
{
    version     2.0;
    format      ascii;
    class       volScalarField;
    location    "0.009";
    object      mag(U);
}
// * * * * * * * * * * * * * * * * * * * * * * * * * * * * * * * * * * * * * //

dimensions      [0 1 -1 0 0 0 0];

internalField   nonuniform List<scalar> 
1000
(
2.6214e-012
2.58142e-012
2.53291e-012
2.50969e-012
2.55221e-012
2.51856e-012
2.67251e-012
2.60331e-012
2.81833e-012
2.8794e-012
3.37012e-012
4.25391e-012
7.55718e-012
1.47094e-011
3.07845e-011
6.72589e-011
1.45557e-010
3.19588e-010
6.96542e-010
1.50809e-009
3.23793e-009
6.89085e-009
1.45346e-008
3.03775e-008
6.29059e-008
1.29048e-007
2.62222e-007
5.27686e-007
1.05147e-006
2.07425e-006
4.05029e-006
7.82691e-006
1.49654e-005
2.83068e-005
5.29542e-005
9.79533e-005
0.000179119
0.000323711
0.00057803
0.00101952
0.00177568
0.00305291
0.00517964
0.0086689
0.0143067
0.023273
0.0373004
0.0588746
0.0914727
0.139828
0.210195
0.310574
0.450838
0.642697
0.89942
1.2353
1.66481
2.20156
2.85714
3.63999
4.55454
5.60068
6.77368
8.06491
9.46328
10.9568
12.5337
14.1829
15.8945
17.6598
19.4715
21.3233
23.2099
25.127
27.0709
29.0384
31.0273
33.0351
35.0603
37.1013
39.1567
41.2254
43.3065
45.3991
47.5024
49.6158
51.7385
53.8701
56.01
58.1578
60.3128
62.4749
64.6434
66.8181
68.9985
71.1844
73.3753
75.5711
77.7713
79.9757
82.184
84.3959
86.6113
88.8299
91.0514
93.2756
95.5024
97.7316
99.9629
102.196
104.431
106.668
108.907
111.146
113.388
115.63
117.873
120.117
122.362
124.608
126.854
129.101
131.348
133.596
135.843
138.091
140.339
142.587
144.835
147.083
149.33
151.577
153.824
156.07
158.316
160.56
162.805
165.048
167.291
169.531
171.772
174.01
176.248
178.485
180.719
182.953
185.184
187.413
189.642
191.866
194.09
196.311
198.528
200.744
202.956
205.165
207.371
209.573
211.771
213.965
216.154
218.339
220.518
222.692
224.86
227.021
229.175
231.322
233.461
235.591
237.711
239.821
241.92
244.006
246.08
248.139
250.182
252.209
254.216
256.204
258.17
260.111
262.026
263.913
265.768
267.589
269.373
271.116
272.816
274.467
276.067
277.611
279.095
280.515
281.866
283.145
284.347
285.47
286.509
287.463
288.331
289.111
289.805
290.414
290.942
291.392
291.77
292.082
292.335
292.536
292.692
292.811
292.9
292.965
293.011
293.044
293.067
293.083
293.096
293.105
293.112
293.12
293.127
293.135
293.143
293.151
293.159
293.166
293.174
293.181
293.187
293.192
293.197
293.201
293.204
293.207
293.209
293.211
293.213
293.214
293.215
293.216
293.217
293.218
293.219
293.22
293.22
293.221
293.222
293.223
293.224
293.225
293.226
293.227
293.229
293.23
293.231
293.233
293.234
293.235
293.236
293.237
293.238
293.238
293.238
293.238
293.238
293.237
293.236
293.235
293.233
293.229
293.222
293.211
293.194
293.169
293.133
293.083
293.016
292.93
292.824
292.698
292.554
292.396
292.23
292.062
291.899
291.746
291.609
291.487
291.38
291.287
291.211
291.152
291.115
291.108
291.162
291.254
291.575
291.829
3.00292e-012
2.87199e-012
2.91832e-012
2.55379e-012
2.59788e-012
2.50522e-012
2.55407e-012
2.54486e-012
2.75319e-012
2.83815e-012
3.65641e-012
4.82411e-012
7.47759e-012
1.42523e-011
3.02867e-011
6.6458e-011
1.45214e-010
3.19343e-010
6.95787e-010
1.50832e-009
3.23721e-009
6.88987e-009
1.45327e-008
3.03753e-008
6.29034e-008
1.29045e-007
2.62219e-007
5.27682e-007
1.05147e-006
2.07425e-006
4.05028e-006
7.82691e-006
1.49654e-005
2.83068e-005
5.29542e-005
9.79533e-005
0.000179119
0.000323711
0.00057803
0.00101952
0.00177568
0.00305291
0.00517964
0.0086689
0.0143067
0.023273
0.0373004
0.0588746
0.0914727
0.139828
0.210195
0.310574
0.450838
0.642697
0.89942
1.2353
1.66481
2.20156
2.85714
3.63999
4.55454
5.60068
6.77368
8.06491
9.46328
10.9568
12.5337
14.1829
15.8945
17.6598
19.4715
21.3233
23.2099
25.127
27.0709
29.0384
31.0273
33.0351
35.0603
37.1013
39.1567
41.2254
43.3065
45.3991
47.5024
49.6158
51.7385
53.8701
56.01
58.1578
60.3128
62.4749
64.6434
66.8181
68.9985
71.1844
73.3753
75.5711
77.7713
79.9757
82.184
84.3959
86.6113
88.8299
91.0514
93.2756
95.5024
97.7316
99.9629
102.196
104.431
106.668
108.907
111.146
113.388
115.63
117.873
120.117
122.362
124.608
126.854
129.101
131.348
133.596
135.843
138.091
140.339
142.587
144.835
147.083
149.33
151.577
153.824
156.07
158.316
160.56
162.805
165.048
167.291
169.531
171.772
174.01
176.248
178.485
180.719
182.953
185.184
187.413
189.642
191.866
194.09
196.311
198.528
200.744
202.956
205.165
207.371
209.573
211.771
213.965
216.154
218.339
220.518
222.692
224.86
227.021
229.175
231.322
233.461
235.591
237.711
239.821
241.92
244.006
246.08
248.139
250.182
252.209
254.216
256.204
258.17
260.111
262.026
263.913
265.768
267.589
269.373
271.116
272.816
274.467
276.067
277.611
279.095
280.515
281.866
283.145
284.347
285.47
286.509
287.463
288.331
289.111
289.805
290.414
290.942
291.392
291.77
292.082
292.335
292.536
292.692
292.811
292.9
292.965
293.011
293.044
293.067
293.083
293.096
293.105
293.112
293.12
293.127
293.135
293.143
293.151
293.159
293.166
293.174
293.181
293.187
293.192
293.197
293.201
293.204
293.207
293.209
293.211
293.213
293.214
293.215
293.216
293.217
293.218
293.219
293.22
293.22
293.221
293.222
293.223
293.224
293.225
293.226
293.227
293.229
293.23
293.231
293.233
293.234
293.235
293.236
293.237
293.238
293.239
293.239
293.239
293.239
293.239
293.239
293.24
293.239
293.239
293.239
293.238
293.237
293.236
293.233
293.227
293.217
293.203
293.183
293.157
293.123
293.084
293.04
292.993
292.949
292.915
292.898
292.892
292.896
292.922
292.993
293.149
293.424
293.796
294.36
295.163
296.22
298.47
298.696
299.046
299.471
299.731
299.918
300.057
300.168
300.266
300.362
300.462
300.571
300.687
300.809
300.936
301.067
301.199
301.331
301.464
301.597
301.729
301.86
301.99
302.12
302.248
302.376
302.502
302.628
302.752
302.875
302.997
303.117
303.237
303.355
303.472
303.587
303.701
303.814
303.925
304.035
304.143
304.25
304.355
304.458
304.561
304.661
304.76
304.857
304.953
305.047
305.139
305.23
305.319
305.406
305.492
305.577
305.66
305.741
305.822
305.9
305.978
306.054
306.129
306.202
306.275
306.346
306.416
306.485
306.554
306.621
306.687
306.753
306.817
306.881
306.944
307.006
307.068
307.129
307.189
307.248
307.306
307.364
307.421
307.478
307.533
307.588
307.642
307.696
307.749
307.801
307.852
307.903
307.953
308.002
308.051
308.099
308.146
308.193
308.239
308.284
308.327
193.055
193.331
193.971
194.728
195.355
195.888
196.401
196.924
197.457
197.994
198.531
199.068
199.606
200.144
200.683
201.223
201.765
202.308
202.854
203.403
203.954
204.509
205.067
205.631
206.198
206.771
207.35
207.935
208.526
209.125
209.73
210.342
210.962
211.59
212.226
212.871
213.524
214.186
214.858
215.54
216.231
216.933
217.645
218.368
219.102
219.847
220.603
221.371
222.151
222.943
223.748
224.565
225.396
226.239
227.096
227.966
228.849
229.745
230.652
231.572
232.503
233.444
234.395
235.355
236.322
237.296
238.275
239.258
240.242
241.228
242.213
243.196
244.176
245.152
246.122
247.084
248.039
248.984
249.918
250.841
251.751
252.647
253.528
254.393
255.242
256.074
256.89
257.687
258.467
259.228
259.971
260.696
261.403
262.092
262.762
263.414
264.048
264.664
265.262
265.843
266.406
266.951
267.478
267.988
268.48
268.953
269.409
269.846
270.265
270.664
271.044
271.404
271.743
272.062
272.359
272.635
272.888
273.12
273.331
273.523
273.696
273.852
273.994
274.128
274.265
274.414
274.586
274.773
274.903
274.77
273.886
271.223
264.489
248.987
219.38
175.881
127.604
86.9305
59.4113
42.2707
30.9465
22.6105
16.0426
10.8047
6.72249
3.69381
1.64839
0.582103
0.167797
0.0379821
308.465
308.462
308.384
308.212
307.991
307.777
307.582
307.401
307.228
307.056
306.884
306.711
306.536
306.359
306.181
306.003
305.823
305.642
305.461
305.279
305.095
304.911
304.724
304.536
304.347
304.155
303.961
303.765
303.567
303.367
303.165
302.961
302.755
302.548
302.339
302.129
301.918
301.705
301.491
301.277
301.061
300.845
300.627
300.409
300.191
299.972
299.753
299.534
299.315
299.096
298.878
298.661
298.446
298.233
298.022
297.815
297.611
297.412
297.217
297.027
296.843
296.665
296.493
296.328
296.169
296.016
295.87
295.728
295.59
295.454
295.32
295.185
295.05
294.916
294.78
294.632
294.469
294.3
294.122
293.932
293.731
293.517
293.292
293.056
292.81
292.555
292.292
292.021
291.746
291.466
291.183
290.897
290.611
290.324
290.038
289.753
289.47
289.188
288.908
288.631
288.356
288.084
287.816
287.551
287.288
287.027
286.769
286.514
286.26
286.008
285.758
285.509
285.262
285.017
284.773
284.532
284.291
284.052
283.815
283.578
283.343
283.107
282.872
282.638
282.406
282.175
281.945
281.712
281.472
281.219
280.949
280.652
280.315
279.919
279.45
278.904
278.294
277.639
276.947
276.185
275.249
273.921
271.744
267.859
259.734
239.068
186.634
102.925
37.3883
8.46122
)
;

boundaryField
{
    inlet
    {
        type            calculated;
        value           nonuniform List<scalar> 2(3.00292e-012 2.6214e-012);
    }
    outlet
    {
        type            calculated;
        value           nonuniform List<scalar> 2(8.46122 0.0379821);
    }
    bottom
    {
        type            symmetryPlane;
    }
    top
    {
        type            symmetryPlane;
    }
    obstacle
    {
        type            calculated;
        value           nonuniform List<scalar> 
102
(
291.829
193.055
298.696
299.046
299.471
299.731
299.918
300.057
300.168
300.266
300.362
300.462
300.571
300.687
300.809
300.936
301.067
301.199
301.331
301.464
301.597
301.729
301.86
301.99
302.12
302.248
302.376
302.502
302.628
302.752
302.875
302.997
303.117
303.237
303.355
303.472
303.587
303.701
303.814
303.925
304.035
304.143
304.25
304.355
304.458
304.561
304.661
304.76
304.857
304.953
305.047
305.139
305.23
305.319
305.406
305.492
305.577
305.66
305.741
305.822
305.9
305.978
306.054
306.129
306.202
306.275
306.346
306.416
306.485
306.554
306.621
306.687
306.753
306.817
306.881
306.944
307.006
307.068
307.129
307.189
307.248
307.306
307.364
307.421
307.478
307.533
307.588
307.642
307.696
307.749
307.801
307.852
307.903
307.953
308.002
308.051
308.099
308.146
308.193
308.239
308.284
308.327
)
;
    }
    defaultFaces
    {
        type            empty;
    }
}


// ************************************************************************* //
