/*--------------------------------*- C++ -*----------------------------------*\
| =========                 |                                                 |
| \\      /  F ield         | OpenFOAM: The Open Source CFD Toolbox           |
|  \\    /   O peration     | Version:  5.x                                   |
|   \\  /    A nd           | Web:      www.OpenFOAM.org                      |
|    \\/     M anipulation  |                                                 |
\*---------------------------------------------------------------------------*/
/*   Windows 32 and 64 bit porting by blueCAPE: http://www.bluecape.com.pt   *\
|  Based on Windows porting (2.0.x v4) by Symscape: http://www.symscape.com   |
\*---------------------------------------------------------------------------*/
FoamFile
{
    version     2.0;
    format      ascii;
    class       volScalarField;
    location    "0.0025";
    object      mag(U);
}
// * * * * * * * * * * * * * * * * * * * * * * * * * * * * * * * * * * * * * //

dimensions      [0 1 -1 0 0 0 0];

internalField   nonuniform List<scalar> 
100
(
1.27687
11.2459
78.5667
239.642
231.444
68.9982
1.27687
11.2459
78.5663
239.648
231.335
68.7626
1.27687
11.2459
78.5658
239.657
231.202
68.4975
1.27687
11.246
78.5654
239.664
231.083
68.3383
1.27687
11.246
78.5651
239.67
230.991
69.6519
1.27687
11.246
78.5644
239.685
230.742
81.0826
1.27687
11.246
78.5632
239.704
230.465
80.8443
1.27687
11.246
78.5623
239.717
230.267
80.7603
1.27687
11.246
78.5621
239.72
230.22
80.7431
1.27687
11.246
78.5621
239.721
230.212
80.7409
28.3204
14.2692
29.2011
14.0722
29.8419
14.0322
29.9898
14.0466
30.0153
14.0502
0.300374
0.0868006
0.00329757
0.911678
0.18559
0.0074863
1.53269
0.311836
0.0119985
2.02433
0.426795
0.0160968
2.63357
0.54096
0.0194067
6.01003
0.666508
0.0284205
5.60572
0.766434
0.0336059
5.53948
0.850887
0.0364464
5.5449
0.864654
0.0368404
5.54662
0.866719
0.0368978
)
;

boundaryField
{
    inlet
    {
        type            calculated;
        value           nonuniform List<scalar> 10(1.27687 1.27687 1.27687 1.27687 1.27687 1.27687 1.27687 1.27687 1.27687 1.27687);
    }
    outlet
    {
        type            calculated;
        value           nonuniform List<scalar> 10(0.0284205 0.0336059 0.0364464 0.0368404 0.0368978 0.00329757 0.0074863 0.0119985 0.0160968 0.0194067);
    }
    bottom
    {
        type            symmetryPlane;
    }
    top
    {
        type            symmetryPlane;
    }
    obstacle
    {
        type            calculated;
        value           nonuniform List<scalar> 
12
(
68.9982
68.7626
68.4975
68.3383
69.6519
0.300374
0.911678
1.53269
2.02433
2.63357
28.3204
14.2692
)
;
    }
    defaultFaces
    {
        type            empty;
    }
}


// ************************************************************************* //
