/*--------------------------------*- C++ -*----------------------------------*\
| =========                 |                                                 |
| \\      /  F ield         | OpenFOAM: The Open Source CFD Toolbox           |
|  \\    /   O peration     | Version:  5.x                                   |
|   \\  /    A nd           | Web:      www.OpenFOAM.org                      |
|    \\/     M anipulation  |                                                 |
\*---------------------------------------------------------------------------*/
/*   Windows 32 and 64 bit porting by blueCAPE: http://www.bluecape.com.pt   *\
|  Based on Windows porting (2.0.x v4) by Symscape: http://www.symscape.com   |
\*---------------------------------------------------------------------------*/
FoamFile
{
    version     2.0;
    format      ascii;
    class       volScalarField;
    location    "0.0025";
    object      p;
}
// * * * * * * * * * * * * * * * * * * * * * * * * * * * * * * * * * * * * * //

dimensions      [1 -1 -2 0 0 0 0];

internalField   nonuniform List<scalar> 
100
(
99674.4
93674.4
73529.2
42706.5
20313.2
12525.4
99674.4
93674.4
73529.2
42709.6
20301.5
12583.2
99674.4
93674.4
73529.2
42713.2
20287.3
12650.7
99674.4
93674.4
73529.2
42716.3
20274.4
12709.2
99674.4
93674.4
73529.3
42718.7
20264.2
12754.6
99674.4
93674.4
73529.3
42724.2
20239.2
12877.7
99674.4
93674.5
73529.3
42732.5
20205.3
13030.3
99674.4
93674.5
73529.3
42739
20179.3
13156.7
99674.4
93674.5
73529.3
42740.7
20172.4
13193.7
99674.4
93674.5
73529.3
42741
20171.2
13200.6
11104.4
10584.5
11118.6
10600.2
11135.7
10613.1
11141.5
10617.2
11142.6
10618
10027
10003.3
10000.2
10044.2
10006
10000.4
10066.5
10009.5
10000.5
10087.3
10013
10000.6
10103.7
10015.8
10000.7
10149.7
10023.6
10000.9
10191.2
10029.3
10001.2
10216.4
10032.4
10001.4
10221.2
10032.9
10001.5
10221.9
10033
10001.5
)
;

boundaryField
{
    inlet
    {
        type            zeroGradient;
    }
    outlet
    {
        type            zeroGradient;
    }
    bottom
    {
        type            symmetryPlane;
    }
    top
    {
        type            symmetryPlane;
    }
    obstacle
    {
        type            zeroGradient;
    }
    defaultFaces
    {
        type            empty;
    }
}


// ************************************************************************* //
