/*--------------------------------*- C++ -*----------------------------------*\
| =========                 |                                                 |
| \\      /  F ield         | OpenFOAM: The Open Source CFD Toolbox           |
|  \\    /   O peration     | Version:  5.x                                   |
|   \\  /    A nd           | Web:      www.OpenFOAM.org                      |
|    \\/     M anipulation  |                                                 |
\*---------------------------------------------------------------------------*/
/*   Windows 32 and 64 bit porting by blueCAPE: http://www.bluecape.com.pt   *\
|  Based on Windows porting (2.0.x v4) by Symscape: http://www.symscape.com   |
\*---------------------------------------------------------------------------*/
FoamFile
{
    version     2.0;
    format      ascii;
    class       surfaceScalarField;
    location    "0.0025";
    object      phi;
}
// * * * * * * * * * * * * * * * * * * * * * * * * * * * * * * * * * * * * * //

dimensions      [1 0 -1 0 0 0 0];

internalField   nonuniform List<scalar> 
174
(
1.62406
8.31153e-007
12.1514
-5.59553e-005
23.8056
0.000239145
13.1571
-0.0185793
3.6935
0.0706986
-0.350405
1.08607
1.30404e-006
8.12611
-8.75631e-005
15.9196
0.000418366
8.78996
-0.031026
2.46986
0.128014
-0.627412
0.726302
1.52025e-006
5.43423
-0.000103035
10.646
0.000524075
5.87088
-0.0388958
1.65151
0.174477
-0.844116
0.485707
1.60225e-006
3.63407
-0.0001097
7.11933
0.000578927
3.92157
-0.0438461
1.10473
0.210464
-1.00656
0.324812
1.62583e-006
2.43024
-0.000112079
4.76095
0.000613865
2.61999
-0.0467656
0.744224
0.232161
-1.1272
1.37863
1.37921e-006
10.3148
-9.96392e-005
20.2074
0.000441479
11.0787
-0.0342411
3.3506
0.151179
-0.735471
0.778463
2.45159
6.25237e-007
18.3424
-5.47683e-005
35.9336
0.000144915
19.6503
-0.0171874
5.97974
0.0653782
-0.323489
1.41242
4.35961
1.3656e-007
32.6176
-1.64208e-005
63.8985
1.28918e-005
34.8833
-0.00489116
10.6668
0.0173383
-0.086425
2.54933
7.7526
9.82819e-009
58.003
-2.19813e-006
113.629
-3.95824e-006
62.0103
-0.000626612
18.9863
0.00201213
-0.0104517
4.54943
13.7863
103.146
202.063
110.265
33.769
8.09511
0.429619
-0.0215287
-0.0084286
0.208896
0.77448
-0.0123988
-0.00636436
0.364855
1.39497
-0.00371798
-0.00182026
0.645554
2.48932
-0.000486506
-0.000244332
1.14916
4.4295
2.04405
0.00218168
-0.0250803
0.00121119
-0.0103013
-0.00152348
0.00261984
-0.0495675
0.001484
-0.0211769
-0.00262308
0.00283289
-0.072125
0.001628
-0.0317909
-0.00326361
0.00261495
-0.0908608
0.00151136
-0.0409431
-0.00356232
0.00265371
-0.105131
0.00124058
-0.0476342
-0.00367469
0.0801065
-0.0564129
0.00819448
-0.0236665
-0.00260247
0.142374
-0.0177866
0.0183283
-0.00638075
-0.00112805
0.254425
-0.00397893
0.0363005
-0.00133676
-0.000263503
0.453785
-0.000342156
0.0655771
-0.000101087
-2.54936e-005
0.807385
0.116882
)
;

boundaryField
{
    inlet
    {
        type            calculated;
        value           nonuniform List<scalar> 10(-0.203927 -0.362639 -0.644872 -1.14676 -2.03927 -0.240231 -0.160652 -0.107435 -0.0718459 -0.0480462);
    }
    outlet
    {
        type            calculated;
        value           nonuniform List<scalar> 10(0.000534585 0.00116132 0.00225568 0.0040561 0.00722402 6.16953e-005 8.24746e-005 9.66329e-005 9.35424e-005 7.85349e-005);
    }
    bottom
    {
        type            symmetryPlane;
        value           uniform 0;
    }
    top
    {
        type            symmetryPlane;
        value           uniform 0;
    }
    obstacle
    {
        type            calculated;
        value           nonuniform List<scalar> 
12
(
1.89268
1.26432
0.844189
0.564238
0.384982
-0.00174227
-0.00211678
-0.00230709
-0.00214233
-0.00239439
0.0222705
0.00642679
)
;
    }
    defaultFaces
    {
        type            empty;
        value           nonuniform 0();
    }
}


// ************************************************************************* //
