/*--------------------------------*- C++ -*----------------------------------*\
| =========                 |                                                 |
| \\      /  F ield         | OpenFOAM: The Open Source CFD Toolbox           |
|  \\    /   O peration     | Version:  5.x                                   |
|   \\  /    A nd           | Web:      www.OpenFOAM.org                      |
|    \\/     M anipulation  |                                                 |
\*---------------------------------------------------------------------------*/
/*   Windows 32 and 64 bit porting by blueCAPE: http://www.bluecape.com.pt   *\
|  Based on Windows porting (2.0.x v4) by Symscape: http://www.symscape.com   |
\*---------------------------------------------------------------------------*/
FoamFile
{
    version     2.0;
    format      ascii;
    class       volScalarField;
    location    "0.0025";
    object      T;
}
// * * * * * * * * * * * * * * * * * * * * * * * * * * * * * * * * * * * * * //

dimensions      [0 0 0 1 0 0 0];

internalField   nonuniform List<scalar> 
100
(
348.102
341.896
306.922
391.831
362.228
301.355
348.102
341.896
306.922
391.837
362.194
301.729
348.102
341.896
306.922
391.844
362.154
302.163
348.102
341.896
306.922
391.849
362.117
302.537
348.102
341.896
306.922
391.854
362.096
302.821
348.102
341.896
306.922
391.862
362.174
303.18
348.102
341.896
306.922
391.878
362.076
304.128
348.102
341.896
306.923
391.891
361.998
304.907
348.102
341.896
306.923
391.895
361.976
305.139
348.102
341.896
306.923
391.896
361.972
305.182
287.268
283.335
287.372
283.458
287.497
283.558
287.54
283.59
287.548
283.595
278.961
278.773
278.748
279.098
278.794
278.749
279.275
278.822
278.75
279.44
278.85
278.751
279.575
278.872
278.752
279.946
278.935
278.753
280.273
278.981
278.756
280.471
279.006
278.757
280.508
279.01
278.758
280.514
279.01
278.758
)
;

boundaryField
{
    inlet
    {
        type            zeroGradient;
    }
    outlet
    {
        type            zeroGradient;
    }
    bottom
    {
        type            symmetryPlane;
    }
    top
    {
        type            symmetryPlane;
    }
    obstacle
    {
        type            zeroGradient;
    }
    defaultFaces
    {
        type            empty;
    }
}


// ************************************************************************* //
