/*--------------------------------*- C++ -*----------------------------------*\
| =========                 |                                                 |
| \\      /  F ield         | OpenFOAM: The Open Source CFD Toolbox           |
|  \\    /   O peration     | Version:  5.x                                   |
|   \\  /    A nd           | Web:      www.OpenFOAM.org                      |
|    \\/     M anipulation  |                                                 |
\*---------------------------------------------------------------------------*/
/*   Windows 32 and 64 bit porting by blueCAPE: http://www.bluecape.com.pt   *\
|  Based on Windows porting (2.0.x v4) by Symscape: http://www.symscape.com   |
\*---------------------------------------------------------------------------*/
FoamFile
{
    version     2.0;
    format      ascii;
    class       volVectorField;
    location    "0.0025";
    object      U;
}
// * * * * * * * * * * * * * * * * * * * * * * * * * * * * * * * * * * * * * //

dimensions      [0 1 -1 0 0 0 0];

internalField   nonuniform List<vector> 
100
(
(1.27687 8.63154e-008 0)
(11.2459 -8.4925e-006 0)
(78.5667 5.35151e-005 0)
(239.642 -0.0133264 0)
(231.444 0.130761 0)
(68.9872 -1.23022 0)
(1.27687 2.23339e-007 0)
(11.2459 -2.17045e-005 0)
(78.5663 0.000152882 0)
(239.648 -0.0356345 0)
(231.335 0.375151 0)
(68.6753 -3.46347 0)
(1.27687 2.9578e-007 0)
(11.2459 -2.87026e-005 0)
(78.5658 0.000224176 0)
(239.657 -0.0502553 0)
(231.201 0.580628 0)
(68.2969 -5.23902 0)
(1.27687 3.25479e-007 0)
(11.246 -3.19548e-005 0)
(78.5654 0.000260674 0)
(239.664 -0.059402 0)
(231.082 0.734154 0)
(68.0256 -6.53008 0)
(1.27687 3.37807e-007 0)
(11.246 -3.33603e-005 0)
(78.5651 0.000290867 0)
(239.67 -0.0659264 0)
(230.989 0.884742 0)
(69.21 -7.83382 0)
(1.27687 3.18974e-007 0)
(11.246 -3.23025e-005 0)
(78.5644 0.000253992 0)
(239.685 -0.0589317 0)
(230.74 0.74951 0)
(80.8149 -6.58349 0)
(1.27687 1.93824e-007 0)
(11.246 -2.26248e-005 0)
(78.5632 0.000111527 0)
(239.704 -0.0348212 0)
(230.465 0.361381 0)
(80.7888 -2.99634 0)
(1.27687 4.94021e-008 0)
(11.246 -8.28373e-006 0)
(78.5623 9.66359e-006 0)
(239.717 -0.0118034 0)
(230.267 0.11245 0)
(80.7544 -0.968476 0)
(1.27687 3.63983e-009 0)
(11.246 -1.16741e-006 0)
(78.5621 -3.37132e-006 0)
(239.72 -0.00157818 0)
(230.22 0.013611 0)
(80.743 -0.123035 0)
(1.27687 1.73574e-010 0)
(11.246 -1.01925e-007 0)
(78.5621 -4.97333e-007 0)
(239.721 -0.00013788 0)
(230.212 0.00114844 0)
(80.7409 -0.0107333 0)
(28.3125 -0.667686 0)
(14.2677 -0.203346 0)
(29.1971 -0.481318 0)
(14.0695 -0.273194 0)
(29.8414 -0.176028 0)
(14.0319 -0.0914559 0)
(29.9898 -0.0243275 0)
(14.0465 -0.0130189 0)
(30.0153 -0.00217576 0)
(14.0502 -0.00110898 0)
(0.075798 -0.290653 0)
(0.0785141 -0.037012 0)
(0.00270673 -0.00188351 0)
(0.136967 -0.90133 0)
(0.142298 -0.119143 0)
(0.00538658 -0.00519898 0)
(0.222223 -1.5165 0)
(0.231532 -0.208889 0)
(0.00940775 -0.00744709 0)
(0.307535 -2.00084 0)
(0.319756 -0.282683 0)
(0.0135922 -0.00862322 0)
(0.509024 -2.58391 0)
(0.391295 -0.373532 0)
(0.0170471 -0.00927438 0)
(5.67281 -1.98486 0)
(0.605139 -0.279355 0)
(0.0272811 -0.00796685 0)
(5.56749 -0.653541 0)
(0.762553 -0.0770413 0)
(0.0333397 -0.0042213 0)
(5.53689 -0.169432 0)
(0.850684 -0.0185875 0)
(0.0364284 -0.00114603 0)
(5.54488 -0.0148949 0)
(0.864653 -0.00142743 0)
(0.0368402 -0.00011452 0)
(5.54662 -0.0011407 0)
(0.866719 -0.000104257 0)
(0.0368978 -8.4806e-006 0)
)
;

boundaryField
{
    inlet
    {
        type            zeroGradient;
    }
    outlet
    {
        type            zeroGradient;
    }
    bottom
    {
        type            symmetryPlane;
    }
    top
    {
        type            symmetryPlane;
    }
    obstacle
    {
        type            zeroGradient;
    }
    defaultFaces
    {
        type            empty;
    }
}


// ************************************************************************* //
